ITEM: TIMESTEP
9100000
ITEM: NUMBER OF ATOMS
12640
ITEM: BOX BOUNDS pp pp pp
-5.7000000000000000e+01 5.7000000000000000e+01
-5.7000000000000000e+01 5.7000000000000000e+01
-1.0500000000000000e+02 1.0500000000000000e+02
ITEM: ATOMS id mol type xu yu zu 
1 1 4 32.7702 24.2484 13.756 
2 1 4 33.9098 24.1653 14.782 
3 1 51 33.6885 22.9629 15.579 
4 1 8 32.4878 22.9359 16.2391 
5 1 9 32.2495 22.5462 17.5249 
6 1 69 30.6953 23.0871 18.089 
7 1 9 30.2887 23.6748 16.4933 
8 1 8 31.3678 23.5914 15.655 
9 1 51 31.4634 24.1898 14.4125 
10 1 19 32.8796 23.4054 13.0724 
11 1 19 32.856 25.1756 13.1929 
12 1 19 33.9438 25.0535 15.4168 
13 1 19 34.8758 24.1316 14.2662 
14 1 22 29.3765 24.2398 16.38 
15 1 19 34.4618 21.5346 23.1621 
16 1 19 34.8598 22.9974 21.1569 
17 1 9 33.1622 21.7053 18.2419 
18 1 69 33.8387 20.2483 17.573 
19 1 8 33.1694 21.6755 19.6093 
20 1 51 32.9018 22.7266 20.4493 
21 1 9 33.9512 19.5254 19.1745 
22 1 4 33.8406 22.8544 21.5435 
23 1 8 33.6704 20.459 20.1508 
24 1 4 33.7087 21.548 22.3685 
25 1 51 33.872 20.3637 21.5183 
26 1 19 32.7154 21.5242 22.8255 
27 1 19 33.59 23.7327 22.1436 
28 1 19 33.9459 15.754 25.2685 
29 1 19 33.1311 13.4683 24.4967 
30 1 19 34.1449 14.9929 16.4982 
31 1 19 35.4043 16.8458 15.2794 
32 1 4 34.6068 15.0607 24.7379 
33 1 4 34.1381 13.5976 24.912 
34 1 9 34.3077 18.1514 19.4828 
35 1 69 34.3058 17.368 21.0538 
36 1 8 34.667 17.2613 18.4969 
37 1 51 34.5762 15.3778 23.3226 
38 1 51 34.761 17.5003 17.1402 
39 1 9 34.8378 15.846 20.3605 
40 1 4 35.5845 16.6254 16.3349 
41 1 8 34.9773 15.9605 18.9944 
42 1 4 35.2044 15.1751 16.6984 
43 1 51 35.0628 12.7629 24.1734 
44 1 8 35.0312 14.4405 22.4161 
45 1 51 35.4488 15.0057 18.114 
46 1 8 35.2781 13.0926 22.8506 
47 1 9 35.1399 14.6015 21.0533 
48 1 9 35.5425 12.2299 21.8099 
49 1 69 35.6893 13.1189 20.3126 
50 1 19 35.6282 15.1811 25.1119 
51 1 19 34.1409 13.2995 25.9645 
52 1 19 35.8095 14.4519 16.1444 
53 1 19 36.6385 16.8147 16.5598 
54 1 19 35.4266 0.0680142 28.8439 
55 1 19 36.7885 7.61854 27.2014 
56 1 19 33.7312 -1.80443 28.5451 
57 1 19 34.8279 6.02064 27.4027 
58 1 19 35.274 7.31452 18.0892 
59 1 19 33.0732 -0.125564 19.7607 
60 1 19 31.9996 1.91708 20.6691 
61 1 19 34.0074 9.46853 18.6515 
62 1 4 36.5848 6.88257 26.4183 
63 1 4 35.5556 -0.678457 28.0538 
64 1 4 35.7768 5.68638 26.9757 
65 1 4 34.8018 -1.98563 28.3937 
66 1 9 35.5862 10.7824 21.9568 
67 1 8 34.5156 3.15038 23.5449 
68 1 69 35.509 9.82868 23.4309 
69 1 69 34.7637 2.11554 24.9303 
70 1 8 35.5909 9.96009 20.8525 
71 1 9 34.1056 2.40983 22.4552 
72 1 51 35.015 -0.153258 26.8166 
73 1 51 35.8086 7.50237 25.3584 
74 1 51 35.6813 10.3295 19.5253 
75 1 51 33.7931 2.85981 21.1866 
76 1 8 34.4543 0.680582 23.9934 
77 1 9 35.3105 8.3401 22.5195 
78 1 4 33.0315 1.98407 20.3121 
79 1 4 35.0974 9.45354 18.5359 
80 1 9 34.0868 1.00421 22.7107 
81 1 8 35.3832 8.58316 21.1675 
82 1 4 33.6644 0.580035 20.3497 
83 1 4 35.6611 8.04391 18.8053 
84 1 51 35.5054 4.771 25.8866 
85 1 51 34.9751 -2.89097 27.2777 
86 1 9 34.8108 -1.01578 25.7586 
87 1 8 35.3288 6.67813 24.3607 
88 1 51 35.2569 7.66315 20.1418 
89 1 51 33.6702 0.136462 21.7247 
90 1 8 35.149 5.29237 24.661 
91 1 9 34.747 -2.41962 26.0021 
92 1 8 34.5256 -0.688976 24.4531 
93 1 9 35.0935 6.99886 23.0368 
94 1 8 34.718 4.58806 23.4935 
95 1 8 34.4419 -3.15162 24.8765 
96 1 69 34.2843 -2.12018 23.4819 
97 1 69 34.559 5.60527 22.0985 
98 1 19 36.6254 -0.870899 27.9226 
99 1 19 37.5361 6.53191 26.0071 
100 1 19 36.3459 5.15757 27.7484 
101 1 19 35.2017 -2.44634 29.3021 
102 1 19 34.6829 0.587126 19.9575 
103 1 19 36.7536 8.0572 18.7518 
104 1 19 33.041 2.3865 19.2944 
105 1 19 35.368 9.80896 17.5387 
106 1 19 36.0108 -17.0021 31.2119 
107 1 19 34.0115 -13.1498 22.041 
108 1 19 34.4046 -9.94502 30.814 
109 1 4 34.9514 -17.1315 31.4443 
110 1 19 33.5503 -5.34365 20.4938 
111 1 8 34.0754 -18.4765 28.1291 
112 1 69 33.8553 -17.5427 26.6717 
113 1 9 34.1705 -17.6542 29.2152 
114 1 51 34.3597 -18.0771 30.5122 
115 1 8 33.95 -16.0385 27.5496 
116 1 9 34.0981 -16.265 28.8998 
117 1 19 34.8575 -17.513 32.467 
118 1 69 33.8988 -13.2278 27.9087 
119 1 8 33.9091 -14.7038 26.9928 
120 1 4 33.9373 -9.51776 29.9224 
121 1 4 33.6491 -13.5724 22.9815 
122 1 51 34.3097 -15.3448 29.9045 
123 1 9 33.8706 -14.4404 25.6401 
124 1 8 33.8106 -12.2521 26.4704 
125 1 9 33.8068 -13.0411 25.3472 
126 1 51 33.9201 -15.3435 24.5954 
127 1 51 34.0946 -10.4542 28.8316 
128 1 8 33.7757 -10.8068 26.4111 
129 1 9 33.8748 -10.0292 27.5407 
130 1 4 34.2234 -15.7787 31.2906 
131 1 51 33.8662 -12.6127 24.039 
132 1 19 32.8717 -9.36263 30.12 
133 1 19 34.6951 -15.023 31.9281 
134 1 69 33.622 -9.82232 24.9755 
135 1 9 33.886 -8.63419 27.2578 
136 1 4 33.2915 -5.72599 21.4851 
137 1 19 32.5778 -13.7766 22.8891 
138 1 8 33.7837 -8.358 25.914 
139 1 51 34.0214 -7.73909 28.2982 
140 1 19 35.4927 -14.6439 23.404 
141 1 51 33.4942 -7.58234 23.0295 
142 1 4 34.4224 -14.8571 23.3225 
143 1 8 33.8917 -7.01086 25.4014 
144 1 9 33.7813 -6.7142 24.0632 
145 1 4 34.6364 -8.2062 29.5207 
146 1 19 35.6952 -8.39644 29.334 
147 1 19 34.8814 -7.21517 21.5165 
148 1 9 33.9508 -5.32387 23.7879 
149 1 69 34.225 -5.5796 26.3394 
150 1 51 33.9241 -4.88788 22.4811 
151 1 19 32.2052 -5.68048 21.6053 
152 1 4 33.8006 -7.17162 21.6739 
153 1 8 34.2236 -4.58072 24.9139 
154 1 19 33.1748 -15.8657 31.5886 
155 1 19 34.2678 -15.6064 22.5433 
156 1 19 34.5421 -7.44813 30.3042 
157 1 19 33.3083 -7.85569 20.9729 
158 1 22 34.1568 -19.555 28.0691 
159 2 4 43.7372 10.3937 14.4014 
160 2 4 44.1969 11.7798 14.9083 
161 2 51 44.1478 12.7334 13.8091 
162 2 8 44.5493 12.3442 12.5462 
163 2 9 44.6712 13.1073 11.4119 
164 2 69 44.9488 12.125 10.0103 
165 2 9 44.984 10.6693 10.9706 
166 2 8 44.7305 10.9536 12.2824 
167 2 51 44.6016 10.0255 13.294 
168 2 19 42.6974 10.4381 14.0561 
169 2 19 43.8206 9.64325 15.1933 
170 2 19 45.2181 11.7232 15.2935 
171 2 19 43.5454 12.1418 15.7121 
172 2 22 45.0965 9.7233 10.4485 
173 2 19 45.3195 18.0436 8.71815 
174 2 19 46.2629 15.9731 8.41746 
175 2 9 44.4297 14.5289 11.3987 
176 2 69 44.1076 15.5087 12.798 
177 2 8 44.3312 15.2645 10.2389 
178 2 51 44.5558 14.9056 8.92759 
179 2 9 43.6357 16.8526 11.7843 
180 2 4 45.2062 15.9344 8.12381 
181 2 8 43.8171 16.5625 10.4621 
182 2 4 44.5649 17.3431 8.3545 
183 2 51 43.5311 17.3173 9.35959 
184 2 19 44.1624 17.7605 7.43845 
185 2 19 45.1511 15.6596 7.06967 
186 2 19 42.1619 24.2205 9.61715 
187 2 19 40.8859 25.9172 10.484 
188 2 19 43.8181 20.4673 16.5071 
189 2 19 44.7369 18.4166 16.297 
190 2 4 42.1626 24.1809 10.7018 
191 2 4 41.0228 25.0834 11.1893 
192 2 9 43.0404 18.0853 12.2232 
193 2 69 42.3448 19.3733 11.2565 
194 2 8 42.8927 18.3207 13.5594 
195 2 51 42.1101 22.7787 11.1238 
196 2 51 43.5481 17.7647 14.6243 
197 2 9 41.9746 20.2571 12.726 
198 2 4 44.3871 18.7367 15.3169 
199 2 8 42.2125 19.5108 13.8296 
200 2 4 43.681 20.0999 15.4897 
201 2 51 39.856 24.2827 11.2978 
202 2 8 41.1104 22.3941 11.9679 
203 2 51 42.2947 19.9621 15.1007 
204 2 8 40.0232 23.2516 12.1673 
205 2 9 41.1354 21.3971 12.889 
206 2 9 39.4656 23.0748 13.4007 
207 2 69 39.7345 21.4415 13.9399 
208 2 19 43.0637 24.7294 11.0231 
209 2 19 41.2831 25.5208 12.1616 
210 2 19 44.1667 20.8887 14.8805 
211 2 19 45.2736 18.905 14.7115 
212 2 19 31.2787 31.2833 9.86481 
213 2 19 39.4354 28.5565 8.63089 
214 2 19 29.3224 32.4159 10.6541 
215 2 19 38.3497 30.6402 8.82051 
216 2 19 38.2812 27.6558 16.2548 
217 2 19 36.2242 30.2965 17.6967 
218 2 19 38.3632 29.9639 16.6731 
219 2 19 40.4295 26.5911 16.8609 
220 2 4 38.8201 28.6037 9.53379 
221 2 4 31.4153 31.8329 10.7936 
222 2 4 38.0507 29.9395 9.60727 
223 2 4 30.0801 32.3103 11.4227 
224 2 9 38.3865 23.9183 13.7782 
225 2 8 36.1727 30.4734 12.7808 
226 2 69 37.2528 24.3772 12.5441 
227 2 69 34.9511 31.4939 12.1538 
228 2 8 38.8661 25.0802 14.3356 
229 2 9 36.3802 30.6751 14.119 
230 2 51 32.1313 31.028 11.7343 
231 2 51 37.9982 27.4439 9.85694 
232 2 51 39.4675 25.1978 15.5555 
233 2 51 37.1119 29.8355 14.9348 
234 2 8 34.3075 31.4829 13.7778 
235 2 9 37.9026 25.9839 12.4419 
236 2 4 37.6309 30.5126 16.0722 
237 2 4 40.07 26.4896 15.838 
238 2 9 35.3282 31.4185 14.721 
239 2 8 38.4823 26.2492 13.6504 
240 2 4 36.4338 31.0289 16.9281 
241 2 4 39.1259 27.6428 15.5751 
242 2 51 36.6501 29.8005 9.90348 
243 2 51 29.6529 31.4231 12.5106 
244 2 9 31.9624 31.2892 13.0668 
245 2 8 37.1643 27.6969 10.9099 
246 2 51 38.7154 27.4926 14.1922 
247 2 51 35.2277 31.3295 16.1115 
248 2 8 36.4756 28.9239 10.9278 
249 2 9 30.613 31.3078 13.4964 
250 2 8 32.8942 31.4263 14.0652 
251 2 9 36.9945 26.9796 12.0656 
252 2 8 36.2613 29.1452 12.3072 
253 2 8 30.4889 31.2734 14.8582 
254 2 69 32.0829 31.3162 15.5926 
255 2 69 35.9884 27.7196 13.2442 
256 2 19 32.0764 32.6755 10.5854 
257 2 19 39.5781 28.7326 10.3063 
258 2 19 38.4313 30.3823 10.5119 
259 2 19 30.2687 33.301 11.8629 
260 2 19 36.7716 31.9025 17.4991 
261 2 19 39.6916 28.5884 15.7501 
262 2 19 38.2644 31.2798 15.624 
263 2 19 40.9442 26.6584 15.1891 
264 2 19 18.3719 38.2627 18.7119 
265 2 19 25.6963 33.9772 21.5851 
266 2 19 22.4081 33.2631 15.5284 
267 2 4 18.2852 37.2192 19.0238 
268 2 19 30.6452 33.6752 17.9845 
269 2 8 18.9677 36.3908 22.6026 
270 2 69 20.1753 35.2472 23.1327 
271 2 9 18.7408 36.2604 21.2583 
272 2 51 18.058 37.1637 20.4691 
273 2 8 20.3202 34.5825 21.5263 
274 2 9 19.4894 35.2195 20.6485 
275 2 19 17.4247 36.7748 18.5197 
276 2 69 21.3045 32.9043 19.4744 
277 2 8 21.3264 33.678 21.0396 
278 2 4 22.0635 32.2299 15.5161 
279 2 4 25.1988 33.3481 22.3261 
280 2 51 19.5148 35.1706 19.2732 
281 2 9 22.4307 33.3151 21.7702 
282 2 8 22.8897 32.2477 19.7429 
283 2 9 23.3362 32.5225 21.0218 
284 2 51 22.8288 33.7378 23.0186 
285 2 51 22.1107 31.7099 16.8608 
286 2 8 23.7142 31.6245 18.7384 
287 2 9 23.3482 31.474 17.4187 
288 2 4 19.5725 36.4598 18.6283 
289 2 51 24.5457 32.2492 21.6197 
290 2 19 21.0271 32.2123 15.1632 
291 2 19 20.4642 36.9957 18.9784 
292 2 69 25.3078 31.0445 18.991 
293 2 9 24.4615 31.1815 16.5645 
294 2 4 30.1788 32.8568 18.536 
295 2 19 25.9868 32.967 22.9834 
296 2 8 25.6365 31.0932 17.273 
297 2 51 24.3107 31.2937 15.1981 
298 2 19 24.2309 35.2612 22.7665 
299 2 51 27.9529 31.9167 18.7646 
300 2 4 24.199 34.2322 23.1419 
301 2 8 26.9702 31.0306 16.7059 
302 2 9 28.0099 31.305 17.5449 
303 2 4 22.9728 31.3525 14.627 
304 2 19 23.0299 31.7804 13.6221 
305 2 19 28.3322 33.8704 18.0612 
306 2 9 29.2716 31.2982 16.9387 
307 2 69 27.5685 30.857 15.0558 
308 2 51 30.3024 31.652 17.7553 
309 2 19 30.7382 32.7561 19.467 
310 2 4 28.6894 33.152 18.8061 
311 2 8 29.239 31.155 15.5824 
312 2 19 19.6471 36.3382 17.5456 
313 2 19 24.5007 34.2915 24.1974 
314 2 19 22.5658 30.3425 14.5652 
315 2 19 28.5595 33.5927 19.777 
316 2 22 18.7286 37.2125 23.2756 
317 3 4 28.2516 -21.7215 23.4664 
318 3 4 28.5887 -22.0769 21.9993 
319 3 51 29.2347 -20.9321 21.375 
320 3 8 28.6923 -19.6764 21.5768 
321 3 9 28.9786 -18.5029 20.9219 
322 3 69 28.0893 -17.1661 21.6213 
323 3 9 27.3739 -18.1965 22.8306 
324 3 8 27.7911 -19.4862 22.6679 
325 3 51 27.4024 -20.5466 23.4576 
326 3 19 29.1635 -21.5036 24.0288 
327 3 19 27.7195 -22.5435 23.9546 
328 3 19 27.6686 -22.3129 21.4546 
329 3 19 29.266 -22.9355 21.9594 
330 3 22 26.7027 -17.7626 23.561 
331 3 19 30.3579 -14.9111 17.1815 
332 3 19 30.2625 -13.9128 19.5066 
333 3 9 29.9347 -18.4318 19.8346 
334 3 69 30.8041 -19.7753 19.1322 
335 3 8 30.2927 -17.2399 19.2423 
336 3 51 29.8471 -15.9701 19.5612 
337 3 9 31.7498 -18.6926 18.135 
338 3 4 30.7602 -14.871 19.3205 
339 3 8 31.3127 -17.392 18.2545 
340 3 4 31.218 -14.9784 17.8531 
341 3 51 31.8689 -16.263 17.6807 
342 3 19 31.9276 -14.1797 17.6118 
343 3 19 31.6219 -14.9593 19.991 
344 3 19 36.1752 -14.6879 14.3301 
345 3 19 38.1596 -15.9245 13.3168 
346 3 19 35.9732 -23.1542 17.601 
347 3 19 35.0315 -21.4478 19.1714 
348 3 4 36.0311 -15.5905 13.7281 
349 3 4 37.2185 -15.8152 12.7642 
350 3 9 32.8855 -19.0447 17.3084 
351 3 69 33.7316 -17.9791 16.2129 
352 3 8 33.461 -20.2968 17.3258 
353 3 51 35.9411 -16.7375 14.6114 
354 3 51 33.1961 -21.3438 18.1806 
355 3 9 34.8077 -19.2624 15.733 
356 3 4 34.3538 -22.1019 18.6066 
357 3 8 34.5503 -20.424 16.4136 
358 3 4 35.0407 -22.6452 17.3351 
359 3 51 36.9466 -17.0388 12.0414 
360 3 8 36.1113 -18.0039 14.0837 
361 3 51 35.3498 -21.5497 16.4341 
362 3 8 36.6607 -18.1678 12.7817 
363 3 9 35.7586 -19.2001 14.6533 
364 3 9 36.6718 -19.4866 12.3791 
365 3 69 36.3823 -20.5488 13.7366 
366 3 19 35.0983 -15.4999 13.1631 
367 3 19 37.3143 -14.9915 12.0499 
368 3 19 34.3872 -23.355 16.8184 
369 3 19 34.044 -22.9252 19.2486 
370 3 19 45.3169 -14.6649 8.02771 
371 3 19 41.7363 -22.9212 6.88981 
372 3 19 44.5204 -12.6249 9.27589 
373 3 19 43.7447 -22.0554 7.50276 
374 3 19 39.5238 -22.7512 10.3965 
375 3 19 43.1477 -18.3991 16.3823 
376 3 19 41.8702 -20.151 15.4758 
377 3 19 37.8396 -24.1702 11.5996 
378 3 4 41.6298 -22.42 7.85612 
379 3 4 45.6992 -14.4151 9.02163 
380 3 4 43.0394 -21.9663 8.33127 
381 3 4 45.574 -12.9071 9.35692 
382 3 9 36.8955 -19.8543 10.999 
383 3 8 42.7572 -18.8144 11.3384 
384 3 69 37.1262 -18.7577 9.67818 
385 3 69 43.8502 -17.6855 10.6164 
386 3 8 37.0452 -21.1435 10.541 
387 3 9 42.6447 -18.5843 12.685 
388 3 51 44.8929 -15.0782 10.0012 
389 3 51 40.6838 -21.3064 7.75551 
390 3 51 36.971 -22.2991 11.2939 
391 3 51 41.8522 -19.2304 13.5976 
392 3 8 44.1484 -16.91 12.1659 
393 3 9 38.2318 -19.9147 8.99867 
394 3 4 42.571 -19.742 14.7485 
395 3 4 37.5141 -23.5404 10.7638 
396 3 9 43.5519 -17.6205 13.1823 
397 3 8 37.7106 -21.1567 9.26573 
398 3 4 43.4901 -18.6616 15.3794 
399 3 4 38.7167 -23.2347 9.84021 
400 3 51 43.079 -20.6242 8.92013 
401 3 51 46.0178 -12.656 10.7282 
402 3 9 45.2054 -14.8627 11.3234 
403 3 8 40.6645 -20.4487 8.82981 
404 3 51 38.2507 -22.3364 8.82508 
405 3 51 43.6053 -17.4525 14.5505 
406 3 8 41.9072 -20.1137 9.416 
407 3 9 45.6914 -13.5774 11.7152 
408 3 8 44.8616 -15.6679 12.3807 
409 3 9 39.6007 -19.7893 9.41882 
410 3 8 41.6659 -19.3763 10.6108 
411 3 8 45.6868 -13.4034 13.0857 
412 3 69 45.2036 -14.8838 13.9027 
413 3 69 40.0282 -18.9173 10.8837 
414 3 19 46.7195 -14.8129 9.09197 
415 3 19 41.2727 -23.1687 8.57121 
416 3 19 43.4157 -22.6851 9.07075 
417 3 19 46.1631 -12.316 8.66049 
418 3 19 44.463 -19.154 15.48 
419 3 19 39.1158 -24.1376 9.36292 
420 3 19 43.2124 -20.5752 14.425 
421 3 19 36.7492 -24.0748 10.195 
422 3 19 48.5303 1.95488 17.4497 
423 3 19 46.7129 -7.77299 20.739 
424 3 19 46.0992 -4.60438 12.0174 
425 3 4 47.4644 2.06986 17.6435 
426 3 19 47.4977 -12.6258 17.1066 
427 3 8 47.698 0.1387 20.7355 
428 3 69 47.6853 -1.59155 20.8822 
429 3 9 47.3748 0.504532 19.4638 
430 3 51 47.2027 1.79716 19.0321 
431 3 8 47.3557 -1.81053 19.1718 
432 3 9 47.2527 -0.586269 18.5518 
433 3 19 47.1806 3.10559 17.4306 
434 3 69 47.1005 -3.39023 16.768 
435 3 8 47.1628 -3.0828 18.5016 
436 3 4 45.466 -4.7849 12.886 
437 3 4 46.4963 -6.75892 20.377 
438 3 51 47.0369 -0.31463 17.2087 
439 3 9 47.0819 -4.26028 19.2142 
440 3 8 46.9469 -5.12126 17.0365 
441 3 9 46.9485 -5.40962 18.3848 
442 3 51 47.0602 -4.42799 20.5839 
443 3 51 46.2992 -4.82055 14.0831 
444 3 8 46.7998 -6.19154 16.0639 
445 3 9 46.5425 -6.01911 14.7222 
446 3 4 46.6389 1.04306 16.8301 
447 3 51 46.8408 -6.65502 18.9777 
448 3 19 44.757 -3.95353 12.9826 
449 3 19 46.7942 1.19138 15.7597 
450 3 69 46.9004 -7.8812 16.4363 
451 3 9 46.262 -7.25727 14.0427 
452 3 4 46.4196 -12.614 17.3282 
453 3 19 45.4409 -6.52239 20.52 
454 3 8 46.3241 -8.34923 14.8732 
455 3 51 45.6505 -7.20026 12.8156 
456 3 19 48.4106 -5.98373 20.8731 
457 3 51 45.5088 -10.3749 16.8263 
458 3 4 47.3763 -5.74353 21.1074 
459 3 8 46.0452 -9.72456 14.5146 
460 3 9 45.84 -10.6333 15.5186 
461 3 4 44.6929 -6.11627 12.7123 
462 3 19 44.1712 -6.15261 11.7542 
463 3 19 46.9872 -10.7172 18.2004 
464 3 9 45.7997 -11.979 15.0976 
465 3 69 46.1006 -10.5282 12.9554 
466 3 51 45.6737 -12.9182 16.1049 
467 3 19 46.2174 -13.3483 18.1107 
468 3 4 46.07 -11.2031 17.8617 
469 3 8 45.9059 -12.1167 13.7275 
470 3 19 45.5812 1.18828 17.0632 
471 3 19 47.2623 -5.7811 22.1967 
472 3 19 43.945 -6.22159 13.5044 
473 3 19 45.389 -11.2587 18.7129 
474 3 22 47.9709 0.749981 21.5932 
475 4 4 -22.3084 -43.5649 21.965 
476 4 4 -21.7991 -43.2543 20.5242 
477 4 51 -21.5941 -41.815 20.2819 
478 4 8 -22.6716 -41.1348 20.7752 
479 4 9 -23.4084 -40.1547 20.193 
480 4 69 -24.9958 -40.3398 20.9485 
481 4 9 -24.4804 -41.3762 22.206 
482 4 8 -23.1589 -41.5347 22.0428 
483 4 51 -22.3956 -42.3874 22.723 
484 4 19 -21.7338 -44.3129 22.5203 
485 4 19 -23.3059 -43.9764 21.8178 
486 4 19 -22.6281 -43.6625 19.8966 
487 4 19 -20.9593 -43.9089 20.2946 
488 4 22 -25.1999 -42.1208 22.6293 
489 4 19 -25.3524 -41.6181 17.0895 
490 4 19 -26.2693 -40.99 18.9373 
491 4 9 -23.1695 -39.747 18.8313 
492 4 69 -21.7234 -39.533 17.8409 
493 4 8 -24.1779 -39.1746 18.1371 
494 4 51 -25.4338 -38.9815 18.5319 
495 4 9 -22.725 -39.5602 16.3882 
496 4 4 -26.269 -40.1146 18.2445 
497 4 8 -24.0171 -39.319 16.7501 
498 4 4 -25.9126 -40.6811 16.8765 
499 4 51 -25.153 -39.7024 16.0669 
500 4 19 -26.8482 -41.0615 16.4975 
501 4 19 -27.2574 -39.7135 18.307 
502 4 19 -27.9316 -38.1317 12.3923 
503 4 19 -28.0803 -40.6935 11.4854 
504 4 19 -25.0431 -42.5201 12.8135 
505 4 19 -23.8145 -43.2727 14.6003 
506 4 4 -27.2277 -38.9348 12.6207 
507 4 4 -27.2275 -40.0078 11.5019 
508 4 9 -22.3589 -39.2121 15.0336 
509 4 69 -23.1115 -37.8934 14.1477 
510 4 8 -22.3895 -40.2751 14.1775 
511 4 51 -25.882 -38.4114 12.6755 
512 4 51 -22.4781 -41.5623 14.5664 
513 4 9 -23.0349 -38.6768 12.5945 
514 4 4 -23.7723 -42.1722 14.4833 
515 4 8 -22.8582 -40.0066 12.8604 
516 4 4 -24.481 -41.6712 13.2043 
517 4 51 -27.0433 -39.2384 10.2729 
518 4 8 -25.1725 -38.3212 11.497 
519 4 51 -23.5591 -41.0265 12.2615 
520 4 8 -25.8188 -38.6104 10.238 
521 4 9 -23.8041 -38.3164 11.4161 
522 4 9 -24.9653 -38.6178 9.16148 
523 4 69 -23.3135 -38.6514 9.7685 
524 4 19 -27.4801 -39.3317 13.6064 
525 4 19 -26.3998 -40.7056 11.6589 
526 4 19 -25.2316 -40.9818 13.5834 
527 4 19 -24.3454 -41.9526 15.3887 
528 4 19 -33.1935 -34.3766 -1.83503 
529 4 19 -31.0529 -36.3767 5.64281 
530 4 19 -34.3719 -34.7626 -3.89626 
531 4 19 -31.3138 -35.3674 3.6393 
532 4 19 -22.8695 -37.1135 4.81376 
533 4 19 -26.7426 -39.8126 -4.07954 
534 4 19 -25.1141 -39.3498 -2.29613 
535 4 19 -21.2498 -38.6665 5.98293 
536 4 4 -30.5681 -36.9834 4.87309 
537 4 4 -32.6452 -35.0663 -2.46469 
538 4 4 -30.92 -36.3728 3.49458 
539 4 4 -33.3994 -35.2614 -3.79866 
540 4 9 -25.4049 -38.6651 7.75638 
541 4 8 -28.134 -37.4547 0.29086 
542 4 69 -27.0154 -38.4563 7.05155 
543 4 69 -29.3798 -36.4079 -0.397485 
544 4 8 -24.4883 -38.7161 6.73577 
545 4 9 -27.3998 -37.9994 -0.749844 
546 4 51 -31.229 -34.8527 -2.53854 
547 4 51 -29.1296 -37.1728 5.08284 
548 4 51 -23.1144 -38.7056 6.88163 
549 4 51 -26.468 -39.0367 -0.701387 
550 4 8 -28.9245 -36.7667 -2.0599 
551 4 9 -26.4172 -38.4556 5.37905 
552 4 4 -26.0809 -39.7226 -1.95595 
553 4 4 -22.2707 -38.9753 5.74631 
554 4 9 -27.8026 -37.5343 -2.04484 
555 4 8 -25.0521 -38.651 5.41548 
556 4 4 -27.0711 -39.436 -3.10488 
557 4 4 -22.8364 -38.1783 4.56301 
558 4 51 -29.8083 -36.3671 2.55945 
559 4 51 -32.4638 -34.9676 -4.82509 
560 4 9 -30.7223 -35.7286 -3.42927 
561 4 8 -28.3773 -37.6371 4.03337 
562 4 51 -24.1841 -38.6579 4.34415 
563 4 51 -27.1431 -38.0205 -3.13677 
564 4 8 -28.7957 -37.2674 2.7145 
565 4 9 -31.3597 -35.7241 -4.6848 
566 4 8 -29.6431 -36.5497 -3.31826 
567 4 9 -27.1272 -38.2377 4.10097 
568 4 8 -27.8839 -37.7428 1.71723 
569 4 8 -30.6887 -36.3708 -5.63814 
570 4 69 -29.3093 -37.2175 -4.90866 
571 4 69 -26.5235 -38.5685 2.45895 
572 4 19 -32.6494 -36.0645 -2.02597 
573 4 19 -31.0972 -37.9297 4.94662 
574 4 19 -31.7651 -36.924 3.05392 
575 4 19 -33.7231 -36.3087 -3.9006 
576 4 19 -28.0926 -39.7957 -2.92789 
577 4 19 -22.2402 -38.3258 3.65941 
578 4 19 -26.0142 -40.7958 -1.80079 
579 4 19 -22.3022 -40.0436 5.53857 
580 4 19 -33.7229 -34.8623 -21.8196 
581 4 19 -31.5732 -38.3932 -14.2216 
582 4 19 -36.0471 -32.6039 -12.5082 
583 4 4 -33.3157 -33.8634 -21.6681 
584 4 19 -29.0617 -39.2071 -8.23463 
585 4 8 -30.8707 -35.8494 -20.4533 
586 4 69 -31.0958 -36.7066 -18.9704 
587 4 9 -31.6115 -34.7169 -20.4302 
588 4 51 -31.8892 -33.9308 -21.5047 
589 4 8 -31.8067 -35.3063 -18.2281 
590 4 9 -32.286 -34.4752 -19.2 
591 4 19 -33.5436 -33.3412 -22.575 
592 4 69 -32.9794 -34.1935 -15.8094 
593 4 8 -32.0284 -35.3023 -16.8039 
594 4 4 -35.102 -32.1509 -12.2208 
595 4 4 -30.5438 -38.0456 -14.3074 
596 4 51 -33.1145 -33.3845 -19.1829 
597 4 9 -31.1855 -36.0743 -16.0449 
598 4 8 -32.2529 -34.9001 -14.3736 
599 4 9 -31.3601 -35.8964 -14.6795 
600 4 51 -30.074 -36.8193 -16.3786 
601 4 51 -34.0596 -32.8007 -12.9674 
602 4 8 -32.3886 -34.5879 -12.986 
603 4 9 -33.2329 -33.7105 -12.3676 
604 4 4 -33.9246 -33.1853 -20.4056 
605 4 51 -30.5477 -36.674 -13.8829 
606 4 19 -35.2484 -31.1472 -12.5812 
607 4 19 -34.9469 -33.5773 -20.2359 
608 4 69 -31.0558 -34.7991 -11.9428 
609 4 9 -33.0718 -33.7792 -10.9433 
610 4 4 -28.8443 -38.2616 -8.72681 
611 4 19 -29.9985 -38.7371 -13.662 
612 4 8 -32.0637 -34.6554 -10.5818 
613 4 51 -33.8526 -33.0006 -10.1464 
614 4 19 -30.9158 -38.7052 -16.3605 
615 4 51 -29.9412 -36.7504 -10.2649 
616 4 4 -30.1545 -38.1518 -15.8105 
617 4 8 -31.6582 -35.2109 -9.30635 
618 4 9 -30.6217 -36.1134 -9.25841 
619 4 4 -34.9643 -32.22 -10.6726 
620 4 19 -35.918 -32.6016 -10.2807 
621 4 19 -30.8032 -38.4211 -9.50868 
622 4 9 -30.2495 -36.5194 -7.96034 
623 4 69 -32.2716 -34.9847 -7.69931 
624 4 51 -29.0653 -37.1934 -7.80811 
625 4 19 -27.8183 -38.2013 -9.02937 
626 4 4 -29.8187 -38.1397 -9.91317 
627 4 8 -31.1015 -36.1286 -7.00299 
628 4 19 -34.0404 -32.1287 -20.6116 
629 4 19 -29.2695 -38.7583 -15.945 
630 4 19 -34.9002 -31.2453 -10.2336 
631 4 19 -29.6938 -38.8354 -10.7601 
632 4 22 -30.4037 -36.4143 -21.2495 
633 5 4 -17.3652 -45.2202 34.5748 
634 5 4 -18.6785 -44.504 34.1991 
635 5 51 -18.7954 -43.2392 34.8814 
636 5 8 -18.5732 -43.3621 36.2105 
637 5 9 -19.4084 -43.1895 37.2859 
638 5 69 -18.626 -43.7925 38.7233 
639 5 9 -17.283 -44.4361 37.807 
640 5 8 -17.3197 -43.9443 36.5345 
641 5 51 -16.5595 -44.3847 35.4747 
642 5 19 -16.8749 -45.6283 33.6842 
643 5 19 -17.6126 -46.0711 35.1771 
644 5 19 -19.5174 -45.1499 34.4859 
645 5 19 -18.7711 -44.3908 33.1363 
646 5 22 -16.8935 -45.4184 38.0603 
647 5 19 -23.3178 -40.7037 33.3706 
648 5 19 -21.881 -42.5025 32.7698 
649 5 9 -20.8076 -42.8217 37.2171 
650 5 69 -21.6715 -42.4711 38.6918 
651 5 8 -21.5635 -42.4925 36.1077 
652 5 51 -21.1878 -42.407 34.7939 
653 5 9 -22.9067 -41.597 37.8092 
654 5 4 -22.2385 -42.5482 33.798 
655 5 8 -22.7558 -41.7945 36.4506 
656 5 4 -23.3515 -41.5013 34.1049 
657 5 51 -23.2817 -40.9879 35.4634 
658 5 19 -24.3367 -41.955 33.97 
659 5 19 -22.6211 -43.5618 33.7827 
660 5 19 -28.6432 -39.5027 35.6314 
661 5 19 -29.2521 -37.5766 34.8591 
662 5 19 -20.48 -37.4287 35.1983 
663 5 19 -19.3576 -39.0448 36.5382 
664 5 4 -27.808 -39.0734 35.0844 
665 5 4 -28.4635 -38.0055 34.2389 
666 5 9 -23.3005 -40.2566 38.1586 
667 5 69 -24.8787 -39.6 37.8429 
668 5 8 -22.3428 -39.2919 37.9398 
669 5 51 -26.9172 -38.4716 36.037 
670 5 51 -20.9868 -39.5074 37.7668 
671 5 9 -24.2034 -38.1687 37.0945 
672 5 4 -20.4231 -39.2552 36.4428 
673 5 8 -22.8566 -38.0992 37.3594 
674 5 4 -21.168 -38.091 35.7265 
675 5 51 -27.4967 -36.998 33.747 
676 5 8 -26.0795 -37.4723 35.6287 
677 5 51 -21.922 -37.3348 36.7025 
678 5 8 -26.3749 -36.6768 34.4673 
679 5 9 -24.819 -37.2759 36.1276 
680 5 9 -25.2607 -35.9529 34.0556 
681 5 69 -24.0781 -35.9094 35.3555 
682 5 19 -27.3714 -39.8531 34.4475 
683 5 19 -28.9954 -38.5187 33.4169 
684 5 19 -21.8903 -38.5052 35.0049 
685 5 19 -20.5309 -40.1605 35.8396 
686 5 19 -28.9119 -36.372 25.2578 
687 5 19 -28.5805 -32.9008 27.9348 
688 5 19 -30.3901 -37.8607 24.171 
689 5 19 -28.7259 -34.2477 26.0272 
690 5 19 -20.7446 -37.0842 30.5932 
691 5 19 -26.4903 -40.4667 23.3465 
692 5 19 -24.3276 -40.1524 24.3475 
693 5 19 -21.2488 -37.5679 32.8776 
694 5 4 -27.9435 -33.763 28.0153 
695 5 4 -28.4325 -36.7994 24.4039 
696 5 4 -27.8504 -34.4626 26.6303 
697 5 4 -29.5092 -37.5429 23.577 
698 5 9 -24.9634 -35.3933 32.7269 
699 5 8 -24.4782 -35.8724 24.9725 
700 5 69 -25.9468 -34.8125 31.3741 
701 5 69 -24.8807 -34.8318 23.6189 
702 5 8 -23.658 -35.4513 32.3008 
703 5 9 -24.7117 -37.1965 24.6018 
704 5 51 -27.7725 -35.7505 23.6755 
705 5 51 -26.6414 -33.4614 28.5699 
706 5 51 -22.5897 -36.0232 32.9404 
707 5 51 -24.6922 -38.3189 25.3927 
708 5 8 -25.3411 -36.1554 22.5848 
709 5 9 -24.5944 -34.9063 30.2258 
710 5 4 -25.1257 -39.6278 24.8531 
711 5 4 -22.1178 -37.2321 32.3225 
712 5 9 -25.2623 -37.328 23.2896 
713 5 8 -23.4693 -35.2742 30.9055 
714 5 4 -26.282 -39.5005 23.8459 
715 5 4 -21.8066 -36.9749 30.8139 
716 5 51 -26.6542 -34.0915 25.9372 
717 5 51 -29.8598 -36.7674 22.4089 
718 5 9 -27.6348 -36.02 22.3526 
719 5 8 -25.599 -34.1974 28.0778 
720 5 51 -22.2426 -35.6485 30.4043 
721 5 51 -25.8993 -38.4748 22.8975 
722 5 8 -25.5725 -34.452 26.6737 
723 5 9 -28.7387 -36.5597 21.6702 
724 5 8 -26.4582 -36.0828 21.6818 
725 5 9 -24.5706 -34.774 28.7685 
726 5 8 -24.5983 -35.4437 26.37 
727 5 8 -28.4428 -36.9916 20.4167 
728 5 69 -26.7135 -37.0059 20.2146 
729 5 69 -23.3555 -35.3004 27.5951 
730 5 19 -27.7273 -37.5356 24.7805 
731 5 19 -28.4614 -34.3652 28.7409 
732 5 19 -27.7997 -35.544 26.7708 
733 5 19 -29.0997 -38.5163 23.246 
734 5 19 -27.2534 -39.3387 24.3042 
735 5 19 -22.362 -37.7106 30.2233 
736 5 19 -25.4426 -40.3011 25.6545 
737 5 19 -22.9083 -37.9934 32.4113 
738 5 19 -39.712 -28.4904 15.1348 
739 5 19 -35.6524 -34.4158 12.7885 
740 5 19 -35.9625 -32.9714 18.2761 
741 5 4 -39.4388 -27.739 15.8652 
742 5 19 -28.3374 -39.5906 16.5693 
743 5 8 -38.0591 -27.7806 13.0532 
744 5 69 -36.8252 -28.8319 12.4588 
745 5 9 -37.78 -27.4474 14.3456 
746 5 51 -38.6444 -26.7677 15.1575 
747 5 8 -36.3957 -29.294 14.0649 
748 5 9 -37.0348 -28.4895 14.972 
749 5 19 -40.3873 -27.3369 16.2039 
750 5 69 -35.3126 -30.9939 16.0207 
751 5 8 -35.6906 -30.4925 14.419 
752 5 4 -35.1494 -32.7701 18.9787 
753 5 4 -34.8743 -33.8142 12.3102 
754 5 51 -37.1706 -28.6206 16.347 
755 5 9 -35.1047 -31.3358 13.5092 
756 5 8 -34.2221 -32.2424 15.4294 
757 5 9 -34.3461 -32.3813 14.0871 
758 5 51 -35.1606 -31.3294 12.1585 
759 5 51 -34.0722 -32.0606 18.3225 
760 5 8 -33.3348 -33.0772 16.1922 
761 5 9 -33.2918 -32.8849 17.5354 
762 5 4 -38.5312 -28.4569 16.9032 
763 5 51 -33.8806 -33.378 13.2723 
764 5 19 -35.667 -32.2439 19.7768 
765 5 19 -38.986 -29.4294 17.08 
766 5 69 -32.1666 -34.3072 15.6751 
767 5 9 -32.6888 -33.9821 18.1707 
768 5 4 -28.272 -38.5227 16.2863 
769 5 19 -34.5268 -34.4837 11.5397 
770 5 8 -32.0349 -34.8605 17.3391 
771 5 51 -33.1476 -34.1835 19.431 
772 5 19 -36.6085 -32.7225 11.7055 
773 5 51 -30.1335 -36.8953 15.8901 
774 5 4 -35.53 -32.6141 11.6046 
775 5 8 -31.1858 -35.8778 17.9325 
776 5 9 -30.3134 -36.7045 17.2522 
777 5 4 -34.599 -34.1223 19.4583 
778 5 19 -35.0471 -34.8753 18.8115 
779 5 19 -30.2079 -39.0353 15.7354 
780 5 9 -29.2943 -37.2229 18.1002 
781 5 69 -30.827 -35.8858 19.6404 
782 5 51 -28.1618 -37.7035 17.4853 
783 5 19 -27.3683 -38.4418 15.6975 
784 5 4 -29.5471 -38.1884 15.4951 
785 5 8 -29.4904 -36.9657 19.4339 
786 5 19 -38.5272 -27.9886 17.8863 
787 5 19 -35.3315 -32.6928 10.537 
788 5 19 -34.9536 -34.342 20.4323 
789 5 19 -29.3713 -38.2472 14.4316 
790 5 22 -39.069 -28.0473 12.7014 
791 6 4 -17.4558 -44.9954 -19.1411 
792 6 4 -18.299 -44.1035 -20.0598 
793 6 51 -17.5888 -43.5226 -21.206 
794 6 8 -16.3562 -43.9624 -21.6335 
795 6 9 -15.5868 -43.45 -22.6769 
796 6 69 -13.8856 -43.5428 -22.3392 
797 6 9 -14.1942 -44.5433 -20.9462 
798 6 8 -15.5324 -44.5856 -20.6732 
799 6 51 -16.0211 -45.0089 -19.4809 
800 6 19 -17.8936 -46.0048 -19.1208 
801 6 19 -17.6013 -44.6631 -18.119 
802 6 19 -18.7808 -43.3477 -19.4468 
803 6 19 -19.162 -44.7142 -20.3843 
804 6 22 -13.3964 -44.8395 -20.2867 
805 6 19 -20.038 -43.5051 -25.4422 
806 6 19 -19.9413 -44.9196 -23.3341 
807 6 9 -16.2219 -42.6212 -23.6742 
808 6 69 -15.6709 -41.1152 -24.3474 
809 6 8 -17.5008 -42.8398 -24.0526 
810 6 51 -18.1382 -44.0147 -23.8502 
811 6 9 -17.353 -40.5348 -24.3217 
812 6 4 -19.5104 -43.915 -23.4236 
813 6 8 -18.1843 -41.6447 -24.426 
814 6 4 -20.179 -43.0175 -24.4791 
815 6 51 -19.5695 -41.6808 -24.4223 
816 6 19 -21.2642 -43.0739 -24.33 
817 6 19 -19.6283 -43.4941 -22.4353 
818 6 19 -21.2087 -34.3444 -23.5279 
819 6 19 -21.4277 -34.4709 -20.9904 
820 6 19 -15.7802 -39.764 -18.5445 
821 6 19 -17.5797 -41.1 -19.7907 
822 6 4 -20.3908 -34.0301 -22.8696 
823 6 4 -20.9292 -33.6213 -21.4761 
824 6 9 -17.783 -39.5817 -23.3131 
825 6 69 -18.0822 -37.863 -23.6021 
826 6 8 -17.1637 -39.7101 -22.0893 
827 6 51 -19.4678 -35.1413 -22.7048 
828 6 51 -16.595 -40.8477 -21.5691 
829 6 9 -17.6321 -37.4347 -21.9578 
830 6 4 -16.5473 -41.0017 -20.1461 
831 6 8 -17.0624 -38.5161 -21.333 
832 6 4 -15.8041 -39.7587 -19.6305 
833 6 51 -19.7921 -33.2332 -20.6742 
834 6 8 -18.611 -35.1444 -21.6216 
835 6 51 -16.5142 -38.5749 -20.0661 
836 6 8 -18.7961 -34.1764 -20.5656 
837 6 9 -17.7733 -36.1728 -21.2478 
838 6 9 -18.1168 -34.5102 -19.4184 
839 6 69 -16.9793 -35.7789 -19.7496 
840 6 19 -19.8689 -33.1914 -23.3355 
841 6 19 -21.6396 -32.7921 -21.5509 
842 6 19 -14.7917 -39.7424 -20.0347 
843 6 19 -16.0291 -41.9265 -19.8781 
844 6 19 -26.6991 -30.6372 -11.5508 
845 6 19 -22.1195 -29.4176 -16.0714 
846 6 19 -27.2826 -31.927 -9.45921 
847 6 19 -21.901 -27.4128 -14.6332 
848 6 19 -18.9971 -36.1855 -14.6727 
849 6 19 -20.0232 -34.3389 -8.70008 
850 6 19 -17.6394 -33.6146 -9.03567 
851 6 19 -17.2744 -37.5765 -15.7921 
852 6 4 -21.1545 -28.9089 -16.045 
853 6 4 -26.3973 -30.2444 -10.5741 
854 6 4 -21.0666 -28.1166 -14.7207 
855 6 4 -27.2984 -30.8275 -9.4586 
856 6 9 -18.2991 -33.8907 -18.1164 
857 6 8 -20.5273 -30.9889 -11.3678 
858 6 69 -19.0873 -32.3821 -17.6777 
859 6 69 -22.0741 -30.2608 -11.0139 
860 6 8 -17.8832 -34.5644 -16.9931 
861 6 9 -20.0542 -31.6992 -10.286 
862 6 51 -25.006 -30.6006 -10.3256 
863 6 51 -20.077 -29.8925 -16.1002 
864 6 51 -17.4893 -35.8858 -16.9369 