ITEM: TIMESTEP
3700000
ITEM: NUMBER OF ATOMS
25280
ITEM: BOX BOUNDS pp pp pp
-1.0500000000000000e+02 1.0500000000000000e+02
-1.0500000000000000e+02 1.0500000000000000e+02
-1.0500000000000000e+02 1.0500000000000000e+02
ITEM: ATOMS id mol type xu yu zu 
1 1 4 -112.348 138.341 66.3915 
2 1 4 -111.372 139.495 66.6663 
3 1 59 -110.039 138.968 66.7144 
4 1 8 -109.682 138.11 65.7693 
5 1 9 -108.468 138.104 65.1382 
6 1 79 -108.406 137.03 63.7348 
7 1 9 -110.141 136.944 63.7896 
8 1 8 -110.647 137.442 64.965 
9 1 59 -111.972 137.601 65.1985 
10 1 19 -113.368 138.73 66.331 
11 1 19 -112.31 137.693 67.252 
12 1 19 -111.579 139.879 67.7332 
13 1 19 -111.517 140.198 65.8297 
14 1 22 -110.713 136.408 63.0294 
15 1 19 -103.268 137.776 64.3599 
16 1 19 -104.445 137.985 62.2715 
17 1 9 -107.343 138.878 65.6876 
18 1 79 -107.3 139.867 67.1193 
19 1 8 -106.114 138.751 65.1088 
20 1 59 -105.808 138.138 63.9396 
21 1 9 -105.557 140.257 66.893 
22 1 4 -104.75 138.652 63.1279 
23 1 8 -105.113 139.515 65.791 
24 1 4 -103.503 138.777 64.0881 
25 1 59 -103.88 139.57 65.2983 
26 1 19 -102.61 139.216 63.5744 
27 1 19 -104.909 139.705 62.8308 
28 1 19 -98.6225 141.754 66.2653 
29 1 19 -98.6138 144.513 66.6242 
30 1 19 -106.334 144.619 70.9263 
31 1 19 -107.004 143.902 68.6893 
32 1 4 -98.8313 142.359 67.1449 
33 1 4 -98.1133 143.771 67.2798 
34 1 9 -104.702 141.087 67.6808 
35 1 79 -103.008 141.482 67.4379 
36 1 8 -105.18 141.801 68.7219 
37 1 59 -100.191 142.656 67.4255 
38 1 59 -106.463 141.877 69.219 
39 1 9 -102.95 142.588 68.7749 
40 1 4 -106.982 143.172 69.5313 
41 1 8 -104.218 142.723 69.2421 
42 1 4 -105.985 143.671 70.5805 
43 1 59 -98.2771 144.269 68.5947 
44 1 8 -100.549 143.357 68.6154 
45 1 59 -104.708 143.836 69.8822 
46 1 8 -99.526 144.209 69.2235 
47 1 9 -101.821 143.484 69.1554 
48 1 9 -100.021 144.959 70.2098 
49 1 79 -101.772 144.785 70.3415 
50 1 19 -98.4858 141.737 67.9387 
51 1 19 -97.024 143.733 67.0663 
52 1 19 -105.844 142.894 71.3701 
53 1 19 -107.961 143.032 69.9572 
54 1 19 -87.5208 150.631 73.3645 
55 1 19 -93.6784 147.306 68.8929 
56 1 19 -87.0947 152.92 73.9211 
57 1 19 -92.9377 149.488 69.6612 
58 1 19 -100.759 149.607 74.3335 
59 1 19 -94.9533 154.106 75.6505 
60 1 19 -96.9042 152.75 76.5322 
61 1 19 -101.314 149.082 71.8905 
62 1 4 -93.5853 147.405 69.9449 
63 1 4 -87.893 151.079 74.3804 
64 1 4 -92.7451 148.62 70.2642 
65 1 4 -86.9306 152.196 74.7293 
66 1 9 -99.2116 145.93 70.8921 
67 1 8 -93.8153 150.709 73.9138 
68 1 79 -97.5758 146.438 70.4538 
69 1 79 -92.0084 150.768 73.8167 
70 1 8 -99.7808 146.741 71.841 
71 1 9 -94.2864 151.424 74.9285 
72 1 59 -89.2347 151.636 74.3206 
73 1 59 -94.8784 147.336 70.6136 
74 1 59 -101.075 146.945 72.1404 
75 1 59 -95.5594 151.527 75.3314 
76 1 8 -91.9828 151.926 75.1492 
77 1 9 -97.5576 147.642 71.7809 
78 1 4 -95.8838 152.37 76.474 
79 1 4 -101.469 148.273 72.6545 
80 1 9 -93.2577 152.259 75.5814 
81 1 8 -98.7924 147.691 72.3696 
82 1 4 -94.9689 153.593 76.4997 
83 1 4 -100.541 148.61 73.8001 
84 1 59 -92.8464 148.855 71.6887 
85 1 59 -87.3035 152.762 75.9577 
86 1 9 -89.6232 152.295 75.4043 
87 1 8 -95.167 148.184 71.6295 
88 1 59 -99.113 148.579 73.377 
89 1 59 -93.6506 153.086 76.5739 
90 1 8 -94.1252 148.961 72.1993 
91 1 9 -88.6384 153 76.1786 
92 1 8 -90.8367 152.507 75.8335 
93 1 9 -96.4195 148.414 72.1878 
94 1 8 -94.6601 149.84 73.1768 
95 1 8 -89.1971 153.831 77.134 
96 1 79 -90.9368 153.66 77.1681 
97 1 79 -96.3753 149.525 73.5214 
98 1 19 -87.8826 150.219 75.106 
99 1 19 -93.0226 146.527 70.2253 
100 1 19 -91.7457 148.351 70.0596 
101 1 19 -85.8581 151.936 74.7724 
102 1 19 -95.1705 154.25 77.3326 
103 1 19 -100.637 147.787 74.5583 
104 1 19 -95.7862 151.605 77.3053 
105 1 19 -102.54 148.302 72.8834 
106 1 19 -74.7857 158.337 82.9088 
107 1 19 -85.6888 160.201 84.7686 
108 1 19 -80.586 155.211 78.5635 
109 1 4 -75.8353 158.749 82.9399 
110 1 19 -91.5184 156.773 80.4732 
111 1 8 -77.764 159.924 85.7768 
112 1 79 -79.4901 160.24 85.7571 
113 1 9 -77.4346 159.255 84.6233 
114 1 59 -76.141 158.948 84.3662 
115 1 8 -79.7176 159.312 84.2963 
116 1 9 -78.5107 159.007 83.7326 
117 1 19 -75.9019 159.717 82.5001 
118 1 79 -80.9598 157.569 82.514 
119 1 8 -80.9281 158.64 83.8627 
120 1 4 -81.5868 155.694 78.6618 
121 1 4 -84.6833 160 84.4889 
122 1 59 -78.166 158.286 82.5597 
123 1 9 -82.1785 158.899 84.4052 
124 1 8 -82.6829 157.576 82.4982 
125 1 9 -83.1835 158.335 83.5675 
126 1 59 -82.4213 159.824 85.4157 
127 1 59 -81.8509 156.024 79.9921 
128 1 8 -83.5566 157.128 81.3945 
129 1 9 -83.1172 156.411 80.2804 
130 1 4 -76.8544 157.722 82.4326 
131 1 59 -84.4634 158.748 83.865 
132 1 19 -81.6206 156.546 78.04 
133 1 19 -76.8805 156.783 83.1052 
134 1 79 -85.3167 157.27 81.4054 
135 1 9 -84.1731 155.978 79.4555 
136 1 4 -90.4749 156.807 80.1935 
137 1 19 -84.427 160.762 83.8075 
138 1 8 -85.4177 156.36 79.8891 
139 1 59 -83.9702 155.281 78.351 
140 1 19 -84.1041 159.183 86.4074 
141 1 59 -88.1349 156.837 80.8552 
142 1 4 -83.782 159.994 85.7922 
143 1 8 -86.5319 155.824 79.2823 
144 1 9 -87.8202 156.039 79.7794 
145 1 4 -82.6509 154.664 78.194 
146 1 19 -82.5132 153.851 78.9399 
147 1 19 -89.6455 155.864 81.82 
148 1 9 -88.8403 155.501 78.9673 
149 1 79 -86.6091 154.672 77.9659 
150 1 59 -90.1765 155.729 79.3327 
151 1 19 -90.3598 157.783 79.6797 
152 1 4 -89.4921 156.794 81.3947 
153 1 8 -88.3834 154.644 78.0114 
154 1 19 -76.7226 157.466 81.3666 
155 1 19 -83.7691 160.909 86.4126 
156 1 19 -82.4945 154.323 77.2574 
157 1 19 -89.773 157.548 82.1506 
158 1 22 -77.1102 160.248 86.59 
159 2 4 -152.094 25.4971 200.494 
160 2 4 -150.854 26.3442 200.805 
161 2 59 -151.015 27.7048 200.614 
162 2 8 -152.153 28.3145 200.863 
163 2 9 -152.433 29.6294 200.669 
164 2 79 -154.212 29.9103 200.762 
165 2 9 -154.499 28.2258 201.151 
166 2 8 -153.315 27.4767 201.086 
167 2 59 -153.217 26.1319 201.158 
168 2 19 -151.993 24.4835 200.925 
169 2 19 -152.243 25.4338 199.398 
170 2 19 -150.055 25.843 200.188 
171 2 19 -150.496 26.2359 201.856 
172 2 22 -155.549 27.8899 201.218 
173 2 19 -151.874 33.554 197.367 
174 2 19 -154.081 33.8028 198.32 
175 2 9 -151.468 30.6818 200.48 
176 2 79 -149.801 30.6056 201.008 
177 2 8 -151.76 31.8689 199.89 
178 2 59 -153.007 32.29 199.372 
179 2 9 -149.49 32.0562 200.186 
180 2 4 -153.204 33.6571 198.944 
181 2 8 -150.594 32.5999 199.632 
182 2 4 -151.904 34.0891 198.259 
183 2 59 -150.72 33.8372 199.072 
184 2 19 -151.916 35.1534 198.038 
185 2 19 -153.296 34.262 199.842 
186 2 19 -146.468 37.5021 196.54 
187 2 19 -144.562 37.12 194.899 
188 2 19 -145.898 33.5331 203.828 
189 2 19 -146.351 31.0273 204.035 
190 2 4 -146.073 36.5224 196.348 
191 2 4 -144.593 36.5473 195.805 
192 2 9 -148.269 32.8122 200.33 
193 2 79 -147.824 34.1498 199.293 
194 2 8 -147.217 32.4774 201.197 
195 2 59 -146.198 35.6435 197.519 
196 2 59 -147.227 31.5845 202.273 
197 2 9 -146.273 34.315 200.126 
198 2 4 -146.04 31.4231 203.079 
199 2 8 -146.116 33.4005 201.133 
200 2 4 -145.27 32.7873 203.273 
201 2 59 -143.868 37.1465 196.895 
202 2 8 -145.255 35.7999 198.448 
203 2 59 -145.027 33.2777 201.987 
204 2 8 -144.037 36.5273 198.185 
205 2 9 -145.234 35.241 199.725 
206 2 9 -143.181 36.5233 199.225 
207 2 79 -143.866 35.7047 200.657 
208 2 19 -146.816 36.2078 195.581 
209 2 19 -144.228 35.5277 195.745 
210 2 19 -144.367 32.7487 203.834 
211 2 19 -145.411 30.5607 202.72 
212 2 19 -131.659 43.8832 194.045 
213 2 19 -139.455 40.2792 194.221 
214 2 19 -130.266 45.1436 195.828 
215 2 19 -137.803 41.9768 195.361 
216 2 19 -138.959 37.1045 202.171 
217 2 19 -131.121 38.5521 201.526 
218 2 19 -133.334 39.5162 201.759 
219 2 19 -139.928 34.7068 202.731 
220 2 4 -138.627 39.8912 194.827 
221 2 4 -130.872 43.4063 194.563 
222 2 4 -137.476 41.037 194.963 
223 2 4 -129.862 44.4117 195.115 
224 2 9 -141.793 36.942 199.106 
225 2 8 -134.586 39.8401 197.978 
226 2 79 -141.033 37.8813 197.799 
227 2 79 -133.748 41.0332 196.929 
228 2 8 -140.84 36.5711 200.06 
229 2 9 -133.783 39.4229 198.979 
230 2 59 -131.463 42.7901 195.66 
231 2 59 -139.027 39.4055 196.129 
232 2 59 -140.992 35.7077 201.18 
233 2 59 -134.076 38.5694 199.989 
234 2 8 -132.245 40.6999 197.822 
235 2 9 -139.425 37.8448 198.543 
236 2 4 -133.244 38.5593 201.181 
237 2 4 -139.878 35.0491 201.731 
238 2 9 -132.46 39.8794 198.852 
239 2 8 -139.525 36.9405 199.615 
240 2 4 -131.868 38.4371 200.737 
241 2 4 -138.732 36.1458 201.65 
242 2 59 -136.401 40.4681 195.776 
243 2 59 -128.835 43.6383 195.811 
244 2 9 -130.641 42.2761 196.646 
245 2 8 -138.054 39.1976 197.071 
246 2 59 -138.474 36.3933 200.288 
247 2 59 -131.553 39.3118 199.613 
248 2 8 -136.764 39.7871 196.862 
249 2 9 -129.289 42.7616 196.757 
250 2 8 -130.908 41.3503 197.649 
251 2 9 -138.141 38.3745 198.184 
252 2 8 -135.949 39.4045 197.99 
253 2 8 -128.495 42.1165 197.691 
254 2 79 -129.428 40.9169 198.627 
255 2 79 -136.694 38.2347 199.106 
256 2 19 -130.498 42.6418 193.921 
257 2 19 -138.122 38.9511 194.308 
258 2 19 -136.965 41.2341 194.011 
259 2 19 -129.343 44.8349 194.278 
260 2 19 -131.726 37.3746 200.488 
261 2 19 -137.789 35.7521 202.129 
262 2 19 -133.529 37.713 201.834 
263 2 19 -139.588 34.1614 201.177 
264 2 19 -115.182 51.1138 196.67 
265 2 19 -118.168 42.9319 201.753 
266 2 19 -121.614 47.5273 195.004 
267 2 4 -115.721 50.53 197.36 
268 2 19 -126.506 40.0855 201.794 
269 2 8 -114.781 49.0875 200.58 
270 2 79 -115.629 47.7842 201.408 
271 2 9 -115.333 49.2884 199.344 
272 2 59 -114.836 50.1494 198.379 
273 2 8 -116.845 47.7413 200.165 
274 2 9 -116.563 48.5884 199.098 
275 2 19 -116.412 51.1797 197.755 
276 2 79 -119.237 46.8396 198.779 
277 2 8 -118.007 46.8185 200.117 
278 2 4 -122.16 47.0662 195.894 
279 2 4 -118.934 43.4701 202.266 
280 2 59 -117.079 48.5615 197.817 
281 2 9 -118.296 45.8294 201.036 
282 2 8 -119.996 45.4556 199.373 
283 2 9 -119.463 45.0338 200.576 
284 2 59 -117.586 45.4723 202.152 
285 2 59 -121.236 46.3291 196.824 
286 2 8 -121.222 44.9934 198.827 
287 2 9 -121.826 45.4898 197.716 
288 2 4 -116.408 49.3216 196.738 
289 2 59 -119.937 44.0937 201.415 
290 2 19 -122.767 47.8423 196.434 
291 2 19 -115.815 48.6897 196.046 
292 2 79 -122.254 43.7443 199.531 
293 2 9 -123.076 44.9063 197.429 
294 2 4 -126.28 40.9992 201.233 
295 2 19 -119.396 42.7701 202.933 
296 2 8 -123.511 44.0234 198.373 
297 2 59 -123.726 45.2405 196.206 
298 2 19 -117.642 44.1997 203.766 
299 2 59 -124.326 41.872 200.216 
300 2 4 -118.325 44.6537 203.067 
301 2 8 -124.798 43.35 198.199 
302 2 9 -125.107 42.3282 199.169 
303 2 4 -123.042 46.0248 195.234 
304 2 19 -122.39 45.4504 194.586 
305 2 19 -124.589 39.7578 200.553 
306 2 9 -126.422 41.875 199.021 
307 2 79 -126.103 43.658 197.041 
308 2 59 -126.904 40.9988 199.983 
309 2 19 -126.343 41.9738 201.742 
310 2 4 -124.821 40.731 200.982 
311 2 8 -127.127 42.5043 197.96 
312 2 19 -117.267 49.6067 196.135 
313 2 19 -119.086 45.2596 203.622 
314 2 19 -123.634 46.48 194.445 
315 2 19 -124.338 40.6929 201.952 
316 2 22 -113.811 49.49 201.034 
317 3 4 181.169 137.252 257.889 
318 3 4 179.91 137.218 258.795 
319 3 59 178.946 136.248 258.343 
320 3 8 178.658 136.179 257.024 
321 3 9 177.581 135.567 256.461 
322 3 79 177.729 135.497 254.714 
323 3 9 179.236 136.408 254.783 
324 3 8 179.503 136.878 256.069 
325 3 59 180.632 137.461 256.512 
326 3 19 181.769 136.39 257.893 
327 3 19 181.775 138.115 258.149 
328 3 19 179.439 138.134 259.069 
329 3 19 180.299 136.831 259.792 
330 3 22 179.751 136.417 253.901 
331 3 19 172.9 134.508 255.955 
332 3 19 173.81 133.427 253.893 
333 3 9 176.559 134.831 257.258 
334 3 79 176.382 134.899 259.052 
335 3 8 175.561 134.015 256.687 
336 3 59 175.3 133.78 255.305 
337 3 9 174.925 133.915 258.912 
338 3 4 174.088 133.102 254.909 
339 3 8 174.571 133.492 257.634 
340 3 4 173.015 133.382 255.995 
341 3 59 173.514 132.8 257.21 
342 3 19 172.133 132.821 255.711 
343 3 19 174.376 132.103 254.88 
344 3 19 168.853 130.596 259.201 
345 3 19 168.584 129.106 261.098 
346 3 19 175.606 133.743 264.009 
347 3 19 176.233 135.79 263.396 
348 3 4 168.679 131.052 260.156 
349 3 4 167.991 130.031 261.165 
350 3 9 174.064 133.576 260.086 
351 3 79 172.546 132.589 260.062 
352 3 8 174.39 133.941 261.38 
353 3 59 169.973 131.368 260.686 
354 3 59 175.387 134.762 261.754 
355 3 9 172.506 132.599 261.75 
356 3 4 175.28 135.457 263.023 
357 3 8 173.483 133.378 262.334 
358 3 4 174.801 134.43 263.975 
359 3 59 168.098 130.529 262.567 
360 3 8 170.326 131.447 261.994 
361 3 59 173.514 133.817 263.653 
362 3 8 169.365 131.019 262.976 
363 3 9 171.441 132.021 262.536 
364 3 9 169.792 131.181 264.347 
365 3 79 171.389 131.942 264.35 
366 3 19 168.073 131.981 259.889 
367 3 19 166.987 129.829 260.829 
368 3 19 174.684 134.893 264.987 
369 3 19 174.558 136.244 262.978 
370 3 19 158.293 125.372 270.687 
371 3 19 164.046 126.874 265.523 
372 3 19 158.341 123.621 272.333 
373 3 19 162.049 126.762 266.268 
374 3 19 170.693 129.676 269.156 
375 3 19 166.12 126.903 274.148 
376 3 19 166.983 129.175 273.839 
377 3 19 171.472 132.014 268.859 
378 3 4 163.604 127.832 265.545 
379 3 4 158.411 125.7 271.693 
380 3 4 162.408 127.788 266.515 
381 3 4 157.896 124.555 272.618 
382 3 9 168.901 130.696 265.443 
383 3 8 163.816 128.028 270.676 
384 3 79 167.363 129.848 265.327 
385 3 79 162.175 127.347 270.784 
386 3 8 169.264 130.894 266.725 
387 3 9 164.376 128.183 271.894 
388 3 59 159.824 125.739 271.9 
389 3 59 164.63 128.737 265.975 
390 3 59 170.35 131.58 267.193 
391 3 59 165.657 128.672 272.211 
392 3 8 162.431 126.841 272.428 
393 3 9 167.242 129.655 266.997 
394 3 4 165.918 129.009 273.594 
395 3 4 170.399 131.856 268.659 
396 3 9 163.646 127.428 272.911 
397 3 8 168.324 130.201 267.597 
398 3 4 165.508 127.761 274.345 
399 3 4 169.93 130.537 269.394 
400 3 59 162.801 127.725 267.869 
401 3 59 158.315 124.809 273.992 
402 3 9 160.311 125.84 273.147 
403 3 8 164.903 128.765 267.257 
404 3 59 168.624 130.092 268.906 
405 3 59 164.14 127.472 274.121 
406 3 8 164.019 128.304 268.201 
407 3 9 159.606 125.331 274.216 
408 3 8 161.624 126.168 273.418 
409 3 9 166.119 129.153 267.811 
410 3 8 164.525 128.495 269.497 
411 3 8 160.35 125.34 275.434 
412 3 79 161.961 125.978 275.163 
413 3 79 165.996 129.355 269.535 
414 3 19 157.974 126.673 271.894 
415 3 19 163.321 128.062 264.531 
416 3 19 161.679 128.542 266.171 
417 3 19 156.809 124.418 272.455 
418 3 19 165.604 128 275.406 
419 3 19 169.855 130.812 270.401 
420 3 19 165.384 129.873 273.959 
421 3 19 169.729 132.73 268.847 
422 3 19 151.25 117.235 285.141 
423 3 19 160.791 119.703 284.362 
424 3 19 153.152 120.818 279.181 
425 3 4 151.201 116.327 284.429 
426 3 19 162.493 125.322 279.838 
427 3 8 154.285 115.118 285.934 
428 3 79 155.845 115.919 285.717 
429 3 9 153.419 115.592 284.986 
430 3 59 152.103 115.267 284.924 
431 3 8 155.194 117.009 284.5 
432 3 9 153.977 116.61 284.133 
433 3 19 150.228 115.918 284.404 
434 3 79 155.162 119.146 282.568 
435 3 8 155.889 118.099 283.857 
436 3 4 154.245 120.973 279.083 
437 3 4 159.898 119.22 284.085 
438 3 59 153.104 117.28 283.296 
439 3 9 157.193 118.503 284.123 
440 3 8 156.712 119.966 282.255 
441 3 9 157.642 119.526 283.222 
442 3 59 158.103 117.937 284.953 
443 3 59 154.931 121.025 280.328 
444 3 8 157.104 121.057 281.333 
445 3 9 156.239 121.33 280.35 
446 3 4 151.821 116.733 283.016 
447 3 59 158.868 120.061 283.483 
448 3 19 154.74 120.168 278.504 
449 3 19 151.247 117.472 282.614 
450 3 79 158.71 121.705 280.96 
451 3 9 156.759 122.231 279.317 
452 3 4 162.719 124.528 279.073 
453 3 19 160.054 118.308 283.459 
454 3 8 158.02 122.582 279.552 
455 3 59 155.959 122.549 278.326 
456 3 19 159.041 119.467 286.062 
457 3 59 160.811 123.314 279.84 
458 3 4 159.276 118.673 285.4 
459 3 8 158.755 123.416 278.588 
460 3 9 160.032 123.808 278.825 
461 3 4 154.544 122.355 278.475 
462 3 19 154.204 123.155 279.116 
463 3 19 162.675 122.987 280.674 
464 3 9 160.68 124.578 277.78 
465 3 79 158.263 124.067 276.954 
466 3 59 162.057 124.758 277.829 
467 3 19 163.822 124.549 278.896 
468 3 4 162.234 123.183 279.708 
469 3 8 159.872 124.749 276.698 
470 3 19 151.849 115.963 282.304 
471 3 19 160.007 118.037 285.944 
472 3 19 154.053 122.476 277.508 
473 3 19 162.416 122.371 279.043 
474 3 22 154.074 114.509 286.817 
475 4 4 43.9018 110.951 115.874 
476 4 4 44.9705 110.53 114.969 
477 4 59 46.2196 110.558 115.62 
478 4 8 46.56 111.561 116.491 
479 4 9 47.7829 111.955 116.999 
480 4 79 47.643 113.247 118.209 
481 4 9 45.9455 113.392 117.81 
482 4 8 45.5153 112.382 116.973 
483 4 59 44.2287 112.149 116.545 
484 4 19 43.7699 110.109 116.534 
485 4 19 43.0089 111.013 115.337 
486 4 19 44.9249 111.163 114.041 
487 4 19 44.819 109.577 114.57 
488 4 22 45.2506 114.143 118.22 
489 4 19 53.1285 112.81 117.151 
490 4 19 52.0188 113.697 119.096 
491 4 9 48.9482 111.233 116.747 
492 4 79 49.1168 109.594 116.005 
493 4 8 50.2139 111.522 117.364 
494 4 59 50.4965 112.597 118.153 
495 4 9 50.8426 109.569 116.223 
496 4 4 51.7491 112.65 118.889 
497 4 8 51.2628 110.632 116.974 
498 4 4 52.9197 112.161 117.986 
499 4 59 52.5326 110.801 117.531 
500 4 19 53.8277 112.145 118.661 
501 4 19 51.8311 112.094 119.831 
502 4 19 53.7036 101.833 114.858 
503 4 19 54.944 102.184 112.803 
504 4 19 50.0093 104.705 114.417 
505 4 19 48.8749 106.375 113.327 
506 4 4 54.5253 102.455 114.926 
507 4 4 55.4817 102.26 113.784 
508 4 9 51.7637 108.613 115.746 
509 4 79 53.484 108.398 116.109 
510 4 8 51.2846 107.446 115.194 
511 4 59 54.1067 103.789 114.791 
512 4 59 50.0526 107.255 114.678 
513 4 9 53.5387 106.782 115.388 
514 4 4 49.9502 106.548 113.448 
515 4 8 52.2562 106.382 115.067 
516 4 4 50.6594 105.183 113.647 
517 4 59 56.4022 103.339 113.5 
518 4 8 55.0046 104.843 114.674 
519 4 59 51.9412 105.302 114.258 
520 4 8 56.2623 104.562 114.076 
521 4 9 54.7977 106.117 115.083 
522 4 9 57.1099 105.654 114.044 
523 4 79 56.3171 106.928 115.039 
524 4 19 55.124 102.277 115.825 
525 4 19 55.89 101.253 113.938 
526 4 19 50.7835 104.542 112.788 
527 4 19 50.362 107.166 112.584 
528 4 19 65.4067 101.873 103.671 
529 4 19 59.8709 102.505 108.294 
530 4 19 64.556 102.879 101.741 
531 4 19 61.9126 101.408 107.378 
532 4 19 60.8594 110.205 112.332 
533 4 19 65.6353 110.685 106.324 
534 4 19 63.169 110.2 106.974 
535 4 19 58.3863 109.557 112.656 
536 4 4 60.6088 102.169 109.037 
537 4 4 65.8417 102.796 103.353 
538 4 4 61.9762 102.083 108.276 
539 4 4 65.626 102.813 101.851 
540 4 9 58.2407 105.727 113.186 
541 4 8 63.456 106.196 107.544 
542 4 79 58.8948 104.493 112.155 
543 4 79 63.9939 105.172 106.305 
544 4 8 58.9692 106.904 113.186 
545 4 9 63.9431 107.458 107.366 
546 4 59 65.229 103.867 103.987 
547 4 59 60.7441 103.062 110.139 
548 4 59 58.8199 108 113.962 
549 4 59 63.6906 108.55 108.168 
550 4 8 64.9608 106.412 105.534 
551 4 9 60.1932 105.642 111.748 
552 4 4 64.0039 109.844 107.666 
553 4 4 59.1344 109.314 113.406 
554 4 9 64.8452 107.549 106.279 
555 4 8 60.1139 106.861 112.341 
556 4 4 65.4371 109.774 106.88 
557 4 4 60.5998 109.267 112.871 
558 4 59 62.3202 103.37 107.854 
559 4 59 66.0929 104.116 101.392 
560 4 9 65.5918 105.084 103.517 
561 4 8 61.3838 104.257 109.961 
562 4 59 60.7177 108.077 112.081 
563 4 59 65.3286 108.777 105.885 
564 4 8 62.3576 104.371 108.862 
565 4 9 65.9402 105.281 102.136 
566 4 8 65.5887 106.322 104.231 
567 4 9 61.2266 105.422 110.703 
568 4 8 62.766 105.749 108.755 
569 4 8 66.439 106.518 101.793 
570 4 79 66.253 107.587 103.132 
571 4 79 62.4299 106.603 110.238 
572 4 19 66.8957 102.617 103.498 
573 4 19 60.2336 101.205 109.385 
574 4 19 62.6587 101.57 109.05 
575 4 19 66.1276 101.998 101.357 
576 4 19 66.2555 109.629 107.568 
577 4 19 61.2948 109.349 113.691 
578 4 19 64.0608 110.571 108.464 
579 4 19 59.1115 109.963 114.342 
580 4 19 74.7529 103.498 87.6014 
581 4 19 72.5189 110.739 94.8648 
582 4 19 69.1385 102.694 93.8088 
583 4 4 74.2107 104.339 88.1024 
584 4 19 69.5476 109.836 101.286 
585 4 8 75.1033 107.952 88.7107 
586 4 79 74.4151 108.88 89.9901 
587 4 9 74.7387 106.588 88.941 
588 4 59 75.0066 105.578 88.0999 
589 4 8 73.5104 107.527 90.6644 
590 4 9 73.8164 106.456 89.9715 
591 4 19 73.2582 104.587 87.5805 
592 4 79 71.6157 106.34 92.5073 
593 4 8 72.5108 107.653 91.6992 
594 4 4 68.721 103.65 94.299 
595 4 4 71.6823 110.91 94.1586 
596 4 59 73.3422 105.196 90.2565 
597 4 9 72.3692 108.81 92.3977 
598 4 8 70.8663 107.413 93.5757 
599 4 9 71.3667 108.686 93.4329 
600 4 59 72.7627 110.102 92.1545 
601 4 59 69.6308 104.787 94.1608 
602 4 8 70.0576 107.075 94.7647 
603 4 9 69.5459 105.841 94.9999 
604 4 4 73.9396 104.04 89.5946 
605 4 59 70.9369 109.729 94.2073 
606 4 19 67.7303 103.866 93.9576 
607 4 19 74.9123 103.815 90.1219 
608 4 79 69.8072 108.152 96.1235 
609 4 9 68.9542 105.745 96.29 
610 4 4 68.6069 110.151 100.935 
611 4 19 71.0735 111.745 94.5288 
612 4 8 69.0432 106.88 97.0504 
613 4 59 68.3013 104.55 96.5437 
614 4 19 72.6595 112.065 92.615 
615 4 59 68.8763 109.325 98.6384 
616 4 4 72.0381 111.213 92.6943 
617 4 8 68.3568 107.01 98.2921 
618 4 9 68.3001 108.152 99.0131 
619 4 4 68.5913 103.35 95.8284 
620 4 19 69.4708 102.651 96.1278 
621 4 19 69.6357 111.054 99.2558 
622 4 9 67.6027 108.037 100.239 
623 4 79 67.4892 105.729 99.1533 
624 4 59 67.6261 109.117 101.001 
625 4 19 68.34 110.994 101.548 
626 4 4 68.7085 110.531 99.4593 
627 4 8 67.1455 106.782 100.529 
628 4 19 73.3268 103.155 89.6494 
629 4 19 71.0796 111.468 92.1715 
630 4 19 67.7722 102.707 96.1111 
631 4 19 67.8336 111.124 99.1579 
632 4 22 75.5634 108.463 87.8798 
633 5 4 46.9844 64.6177 412.021 
634 5 4 47.2789 63.7571 410.769 
635 5 59 48.7104 63.7145 410.609 
636 5 8 49.4639 63.3109 411.714 
637 5 9 50.6722 62.6731 411.699 
638 5 79 51.2584 62.6381 413.38 
639 5 9 49.703 63.2379 414.038 
640 5 8 48.9304 63.748 413.042 
641 5 59 47.6148 64.1936 413.217 
642 5 19 45.9045 64.5677 412.076 
643 5 19 47.2288 65.6175 411.736 
644 5 19 46.8127 64.2174 409.874 
645 5 19 46.8959 62.732 410.909 
646 5 22 49.5607 63.2263 415.136 
647 5 19 55.5402 59.055 409.996 
648 5 19 55.3939 61.4216 410.782 
649 5 9 51.2939 62.1503 410.467 
650 5 79 50.6579 62.2371 408.832 
651 5 8 52.5958 61.5758 410.421 
652 5 59 53.4588 61.4276 411.498 
653 5 9 51.9264 61.1424 408.174 
654 5 4 54.7482 60.7476 411.211 
655 5 8 52.8916 60.976 409.146 
656 5 4 54.6084 59.6495 410.107 
657 5 59 54.1091 60.3513 408.966 
658 5 19 53.7413 58.9986 410.434 
659 5 19 55.1971 60.346 412.141 
660 5 19 57.6512 58.7131 404.569 
661 5 19 56.689 56.3906 404.031 
662 5 19 48.5586 59.6739 404.368 
663 5 19 48.2218 62.077 404.987 
664 5 4 56.9116 58.5776 403.776 
665 5 4 56.9605 57.147 403.256 
666 5 9 52.0894 60.6729 406.804 
667 5 79 53.5023 59.8383 406.159 
668 5 8 51.0442 60.6998 405.878 
669 5 59 55.5424 58.8167 404.162 
670 5 59 49.8144 61.3933 406.013 
671 5 9 52.6703 59.4749 404.648 
672 5 4 49.2169 61.798 404.81 
673 5 8 51.3471 60.0135 404.657 
674 5 4 49.1275 60.5417 403.883 
675 5 59 56.0368 56.9982 402.177 
676 5 8 54.4974 58.3397 403.427 
677 5 59 50.4882 60.1684 403.606 
678 5 8 54.7688 57.4408 402.342 
679 5 9 53.1577 58.5838 403.599 
680 5 9 53.6684 57.1562 401.567 
681 5 79 52.2336 57.8974 402.257 
682 5 19 57.289 59.3194 403.046 
683 5 19 57.9864 56.957 402.9 
684 5 19 48.6114 60.7948 403.004 
685 5 19 49.8208 62.5505 404.333 
686 5 19 60.3881 50.2753 392.47 
687 5 19 59.1232 55.254 397.626 
688 5 19 59.8349 48.1336 391.843 
689 5 19 58.4566 52.9247 396.575 
690 5 19 50.2343 55.181 398.209 
691 5 19 51.8336 50.529 392.034 
692 5 19 50.9168 52.8208 391.911 
693 5 19 49.3941 57.4078 398.911 
694 5 4 58.3638 55.0814 396.84 
695 5 4 59.8946 50.1357 391.525 
696 5 4 58.5985 53.8499 395.96 
697 5 4 60.1616 48.7405 391.054 
698 5 9 53.7269 56.6671 400.233 
699 5 8 55.3464 53.1072 393.336 
700 5 79 55.101 56.1402 399.31 
701 5 79 56.7824 52.3136 392.727 
702 5 8 52.614 56.6771 399.376 
703 5 9 54.1575 52.6252 392.658 
704 5 59 58.4899 50.3933 391.702 
705 5 59 57.0902 54.8791 397.453 
706 5 59 51.3087 56.9871 399.632 
707 5 59 52.863 53.0948 392.746 
708 5 8 55.8404 51.3099 391.651 
709 5 9 54.2151 55.8232 397.879 
710 5 4 51.9745 52.7218 391.691 
711 5 4 50.4277 57.244 398.561 
712 5 9 54.5195 51.6335 391.677 
713 5 8 52.8711 56.1582 398.041 
714 5 4 52.1703 51.2021 391.254 
715 5 4 50.5523 56.0549 397.605 
716 5 59 57.6221 53.7798 395.003 
717 5 59 59.3325 48.4672 389.924 
718 5 9 57.6059 49.8223 390.895 
719 5 8 56.031 54.6274 396.591 
720 5 59 51.8712 56.0149 397.11 
721 5 59 53.5317 51.0506 390.866 
722 5 8 56.3294 54.0411 395.315 
723 5 9 57.9845 48.7691 390.02 
724 5 8 56.3053 50.2194 390.782 
725 5 9 54.6887 55.1013 396.679 
726 5 8 55.1528 53.9942 394.49 
727 5 8 56.8949 48.1593 389.38 
728 5 79 55.4295 49.1616 389.676 
729 5 79 53.7497 54.6938 395.228 
730 5 19 60.1888 50.8341 390.77 
731 5 19 58.3246 55.9458 396.213 
732 5 19 59.5209 53.8513 395.489 
733 5 19 61.1515 48.5582 390.738 
734 5 19 51.5188 51.0237 390.378 
735 5 19 49.7127 56.1818 396.844 
736 5 19 52.2291 53.3802 390.862 
737 5 19 50.7362 58.1795 398.172 
738 5 19 64.8252 34.6534 384.748 
739 5 19 55.5699 39.3291 383.308 
740 5 19 62.6935 42.8693 386.228 
741 5 4 63.7515 34.9079 384.985 
742 5 19 54.045 46.6524 385.794 
743 5 8 60.4929 34.1339 383.367 
744 5 79 59.2301 35.3315 383.13 
745 5 9 61.5026 34.7493 384.062 
746 5 59 62.7395 34.1761 384.319 
747 5 8 60.0605 36.5342 384.097 
748 5 9 61.3118 36.1274 384.368 
749 5 19 63.5948 34.6631 386.009 
750 5 79 60.4153 39.08 385.172 
751 5 8 59.5559 37.8049 384.422 
752 5 4 62.2772 42.3312 387.007 
753 5 4 55.5308 39.0279 384.339 
754 5 59 62.2836 36.7809 385.028 
755 5 9 58.2063 38.056 384.422 
756 5 8 58.8933 40.0457 385.423 
757 5 9 57.8758 39.3693 384.886 
758 5 59 57.1808 37.2034 384.009 
759 5 59 61.1314 41.5127 386.566 
760 5 8 58.7728 41.3377 385.966 
761 5 9 59.8707 42.0236 386.412 
762 5 4 63.6552 36.4389 384.805 
763 5 59 56.4858 39.7439 385.042 
764 5 19 63.0379 41.6495 387.473 
765 5 19 64.0202 36.7345 383.847 
766 5 79 57.2729 42.3431 386.178 
767 5 9 59.5158 43.2577 387.012 
768 5 4 53.8564 46.2503 386.827 
769 5 19 54.5125 39.2413 384.719 
770 5 8 58.1684 43.6108 386.895 
771 5 59 60.5011 44.0087 387.633 
772 5 19 55.0167 36.898 383.906 
773 5 59 55.4306 44.6007 386.35 
774 5 4 55.8037 37.5034 384.456 
775 5 8 57.6824 44.9492 387.239 
776 5 9 56.4094 45.3657 387.013 
777 5 4 61.6666 43.2826 388.115 
778 5 19 62.4101 44.0214 388.476 
779 5 19 53.3866 44.2299 386.329 
780 5 9 56.0299 46.5356 387.726 
781 5 79 58.5772 46.083 388.199 
782 5 59 54.7649 46.9543 387.76 
783 5 19 52.7945 46.3919 387.077 
784 5 4 54.1561 44.7191 386.912 
785 5 8 57.0779 47.0612 388.477 
786 5 19 64.3087 36.8423 385.601 
787 5 19 55.7687 37.2119 385.506 
788 5 19 61.4814 42.6051 388.958 
789 5 19 54.0965 44.2626 387.94 
790 5 22 60.521 33.2934 382.749 
791 6 4 -125.025 132.875 283.191 
792 6 4 -125.686 133.305 284.467 
793 6 59 -125.301 132.319 285.421 
794 6 8 -123.965 132.098 285.702 
795 6 9 -123.383 131.625 286.821 
796 6 79 -121.617 131.63 286.723 
797 6 9 -121.738 132.201 284.96 
798 6 8 -123.065 132.353 284.591 
799 6 59 -123.542 132.978 283.423 
800 6 19 -125.276 133.488 282.351 
801 6 19 -125.293 131.828 282.934 
802 6 19 -126.781 133.473 284.376 
803 6 19 -125.271 134.26 284.782 
804 6 22 -120.844 132.492 284.442 
805 6 19 -123.442 128.134 291.077 
806 6 19 -121.351 128.772 290.28 
807 6 9 -124.223 131.12 287.95 
808 6 79 -126.027 131.405 288.145 
809 6 8 -123.704 130.612 289.097 
810 6 59 -122.417 130.185 289.251 
811 6 9 -125.906 130.843 289.881 
812 6 4 -121.959 129.612 290.467 
813 6 8 -124.62 130.494 290.218 
814 6 4 -123.031 129.063 291.375 
815 6 59 -124.16 129.98 291.411 
816 6 19 -122.588 128.883 292.349 
817 6 19 -121.395 130.313 291.098 
818 6 19 -126.142 128.243 296.258 
819 6 19 -127.615 129.53 297.891 
820 6 19 -131.988 130.833 289.508 
821 6 19 -130.124 132.534 289.289 
822 6 4 -127.317 128.223 296.068 
823 6 4 -128.007 128.63 297.446 
824 6 9 -126.992 130.722 290.842 
825 6 79 -127.045 129.963 292.381 
826 6 8 -128.27 130.798 290.401 
827 6 59 -127.705 129.153 295.059 
828 6 59 -128.675 131.103 289.117 
829 6 9 -128.773 130.177 292.612 
830 6 4 -130.013 131.526 288.916 
831 6 8 -129.256 130.472 291.386 
832 6 4 -130.961 130.543 289.598 
833 6 59 -129.419 128.734 297.207 
834 6 8 -129.006 129.391 294.924 
835 6 59 -130.62 130.548 291.038 
836 6 8 -129.896 129.136 295.99 
837 6 9 -129.61 129.861 293.765 
838 6 9 -131.209 129.552 295.69 
839 6 79 -131.329 130.036 293.994 
840 6 19 -127.863 127.272 295.804 
841 6 19 -127.792 127.88 298.222 
842 6 19 -130.839 129.517 289.177 
843 6 19 -130.236 131.603 287.867 
844 6 19 -137.544 128.94 308.941 
845 6 19 -131.802 129.238 302.829 
846 6 19 -137.285 126.7 310.162 
847 6 19 -132.805 127.678 304.322 
848 6 19 -135.661 131.924 296.272 
849 6 19 -142.366 128.624 301.564 
850 6 19 -140.449 130.572 301.206 
851 6 19 -135.697 130.725 293.98 
852 6 4 -132.158 128.299 302.395 
853 6 4 -137.047 128.042 308.515 
854 6 4 -133.184 127.667 303.332 
855 6 4 -137.701 126.832 309.15 
856 6 9 -132.203 129.671 296.701 
857 6 8 -137.291 129.111 302.688 
858 6 79 -132.142 129.297 298.405 
859 6 79 -137.153 128.68 304.351 
860 6 8 -133.512 130.062 296.385 
861 6 9 -138.587 129.179 302.289 
862 6 59 -137.499 127.889 307.119 
863 6 59 -132.746 128.512 301.094 
864 6 59 -133.99 130.403 295.169 
865 6 59 -139.068 129.165 301.038 
866 6 8 -138.838 128.486 304.519 
867 6 9 -133.875 129.597 298.643 
868 6 4 -140.443 129.517 300.884 
869 6 4 -135.427 130.222 294.93 
870 6 9 -139.457 128.834 303.362 
871 6 8 -134.402 130.079 297.496 
872 6 4 -141.246 128.517 301.714 
873 6 4 -136.047 130.982 296.166 
874 6 59 -134.464 128.351 303.283 
875 6 59 -139.138 126.918 309.081 
876 6 9 -138.839 127.709 306.873 
877 6 8 -134.041 128.917 300.927 
878 6 59 -135.665 130.224 297.289 
879 6 59 -140.794 128.689 303.077 
880 6 8 -134.947 128.8 302.048 
881 6 9 -139.685 127.243 307.87 
882 6 8 -139.505 128.05 305.707 
883 6 9 -134.614 129.453 299.817 
884 6 8 -136.263 129.216 301.703 
885 6 8 -140.995 127.133 307.512 
886 6 79 -141.262 127.813 305.899 