LAMMPS (29 Oct 2020)
OMP_NUM_THREADS environment is not set. Defaulting to 1 thread. (src/lammps-stable_29Oct2020/src/comm.cpp:94)
  using 1 OpenMP thread(s) per MPI task
units real
atom_style full
ERROR: Unrecognized atom style 'full' is part of the MOLECULE package which is not enabled in this LAMMPS binary. (src/lammps-stable_29Oct2020/src/atom.cpp:706)
Last command: atom_style full
