LAMMPS Description

     5750  atoms
     6250  bonds
     9750  angles
     11000  dihedrals
     0  impropers

     71  atom types
     807  bond types
     4248  angle types
     641  dihedral types
     38  improper types

  -69.33 69.33 xlo xhi
  -69.33 69.33 ylo yhi
  -50 300.33 zlo zhi

Masses

1 12.01  # c
2 12.01  # c1
3 12.01  # c2
4 12.01  # c3
5 12.01  # ca
6 12.01  # cp
7 12.01  # cq
8 12.01  # cc
9 12.01  # cd
10 12.01  # ce
11 12.01  # cf
12 12.01  # cg
13 12.01  # ch
14 12.01  # cx
15 12.01  # cy
16 12.01  # cu
17 12.01  # cv
18 12.01  # cz
19 1.008  # h1
20 1.008  # h2
21 1.008  # h3
22 1.008  # h4
23 1.008  # h5
24 1.008  # ha
25 1.008  # hc
26 1.008  # hn
27 1.008  # ho
28 1.008  # hp
29 1.008  # hs
30 1.008  # hw
31 1.008  # hx
32 19.00  # f
33 35.45  # cl
34 79.90  # br
35 126.9  # i
36 14.01  # n
37 14.01  # n1
38 14.01  # n2
39 14.01  # n3
40 14.01  # n4
41 14.01  # na
42 14.01  # nb
43 14.01  # nc
44 14.01  # nd
45 14.01  # ne
46 14.01  # nf
47 14.01  # nh
48 14.01  # no
49 16.00  # o
50 16.00  # oh
51 16.00  # os
52 16.00  # ow
53 30.97  # p2
54 30.97  # p3
55 30.97  # p4
56 30.97  # p5
57 30.97  # pb
58 30.97  # pc
59 30.97  # pd
60 30.97  # pe
61 30.97  # pf
62 30.97  # px
63 30.97  # py
64 32.06  # s
65 32.06  # s2
66 32.06  # s4
67 32.06  # s6
68 32.06  # sh
69 32.06  # ss
70 32.06  # sx
71 32.06  # sy

Atoms  # full

1 1 8 -0.208958 25.953698 -38.558261 20.483396
2 1 8 -0.120106 25.398663 -37.426749 19.872275
3 1 24 0.168784 27.477163 -35.845899 16.517427
4 1 8 0.036111 24.058462 -32.630464 16.39152
5 1 24 0.124281 25.512124 -39.045072 21.342709
6 1 24 0.154192 26.482317 -33.768122 15.372764
7 1 69 -0.081133 27.474518 -37.980457 18.589741
8 1 69 -0.165620 24.482371 -34.800762 18.126485
9 1 9 0.047555 26.138395 -36.974374 18.784952
10 1 9 -0.198352 22.354742 -31.042349 16.341967
11 1 22 0.135647 27.713623 -39.849858 20.193386
12 1 9 -0.055342 27.125664 -38.997211 19.881878
13 1 8 0.145190 24.84946 -33.792655 16.826758
14 1 9 0.154002 25.81699 -35.813137 17.939836
15 1 8 -0.069343 23.109482 -30.608278 15.260387
16 1 24 0.147292 24.486412 -36.958739 20.217933
17 1 8 -0.243128 26.565647 -35.370256 16.854389
18 1 24 0.119735 21.445143 -30.552326 16.662828
19 1 24 0.146049 22.416397 -32.637958 17.836084
20 1 8 -0.187742 26.024748 -34.240298 16.23174
21 1 9 -0.116902 22.882753 -32.173457 16.977178
22 1 69 -0.075914 24.434089 -31.628859 15.09111
23 1 22 0.143700 22.881909 -29.756803 14.633507
24 2 8 -0.208958 26.335016 49.607741 24.109248
25 2 8 -0.120106 26.184932 50.895732 24.638785
26 2 24 0.168784 29.575644 53.453395 24.449892
27 2 8 0.036111 26.827275 56.626528 26.552293
28 2 24 0.124281 25.541207 48.872745 24.102909
29 2 24 0.154192 29.331224 55.825817 25.41374
30 2 69 -0.081133 28.534701 50.745107 23.792288
31 2 69 -0.165620 26.306359 53.984889 25.745826
32 2 9 0.047555 27.338188 51.666344 24.537414
33 2 9 -0.198352 25.450934 58.190226 27.595252
34 2 22 0.135647 27.927501 48.437141 23.137985
35 2 9 -0.055342 27.600194 49.362413 23.592389
36 2 8 0.145190 27.259665 55.361456 25.937127
37 2 9 0.154002 27.497461 53.054424 24.999863
38 2 8 -0.069343 26.613768 58.940758 27.483967
39 2 24 0.147292 25.261554 51.246977 25.08005
40 2 8 -0.243128 28.657165 53.815001 24.892924
41 2 24 0.119735 24.542053 58.570934 28.041839
42 2 24 0.146049 24.752772 56.182058 27.083408
43 2 8 -0.187742 28.524416 55.105255 25.417033
44 2 9 -0.116902 25.566803 56.894975 27.075064
45 2 69 -0.075914 27.787994 57.996749 26.739076
46 2 22 0.143700 26.740811 59.960794 27.820367
47 3 8 -0.208958 25.842109 27.937776 100.390798
48 3 8 -0.120106 25.105721 29.11895 100.234549
49 3 24 0.168784 27.132076 32.764581 101.057659
50 3 8 0.036111 23.069626 34.835934 99.940344
51 3 24 0.124281 25.430513 26.95379 100.209823
52 3 24 0.154192 25.806469 34.951432 100.779124
53 3 69 -0.081133 27.397747 29.802754 100.969182
54 3 69 -0.165620 23.795563 32.12142 100.006858
55 3 9 0.047555 25.840883 30.263735 100.522859
56 3 9 -0.198352 21.047216 35.848875 99.382635
57 3 22 0.135647 27.888705 27.377398 100.979937
58 3 9 -0.055342 27.151992 28.148602 100.800389
59 3 8 0.145190 24.061924 33.776327 100.181954
60 3 9 0.154002 25.351063 31.649799 100.452888
61 3 8 -0.069343 21.8002 36.977905 99.676183
62 3 24 0.147292 24.070247 29.130066 99.920884
63 3 8 -0.243128 26.096739 32.787288 100.744285
64 3 24 0.119735 20.01235 35.893221 99.070336
65 3 24 0.146049 21.313546 33.678757 99.340075
66 3 8 -0.187742 25.375988 33.976679 100.59284
67 3 9 -0.116902 21.754243 34.648762 99.529398
68 3 69 -0.075914 23.345709 36.487421 100.118509
69 3 22 0.143700 21.449758 37.999974 99.627785
70 4 8 -0.208958 46.534112 -32.319062 125.36603
71 4 8 -0.120106 47.162118 -33.571035 125.371014
72 4 24 0.168784 46.19777 -36.186868 128.580639
73 4 8 0.036111 49.168975 -39.18776 126.529058
74 4 24 0.124281 46.703077 -31.573692 124.60035
75 4 24 0.154192 47.334595 -38.49412 128.617386
76 4 69 -0.081133 45.690206 -33.506638 127.393384
77 4 69 -0.165620 48.378661 -36.5908 125.800223
78 4 9 0.047555 46.79246 -34.363813 126.452204
79 4 9 -0.198352 50.645875 -40.665835 125.498869
80 4 22 0.135647 45.090083 -31.232411 126.624456
81 4 9 -0.055342 45.672995 -32.12408 126.437695
82 4 8 0.145190 48.382044 -37.968038 126.771578
83 4 9 0.154002 47.27654 -35.724381 126.735956
84 4 8 -0.069343 50.26283 -41.439304 126.586476
85 4 24 0.147292 47.862521 -33.881426 124.60694
86 4 8 -0.243128 46.899142 -36.507571 127.821779
87 4 24 0.119735 51.349164 -41.00554 124.75025
88 4 24 0.146049 50.225865 -38.68103 124.682599
89 4 8 -0.187742 47.517279 -37.762389 127.841915
90 4 9 -0.116902 50.035869 -39.40554 125.463596
91 4 69 -0.075914 49.165584 -40.559045 127.50627
92 4 22 0.143700 50.612495 -42.439477 126.803648
93 5 8 -0.208958 34.353949 -57.975031 193.002084
94 5 8 -0.120106 35.382642 -58.877326 193.301261
95 5 24 0.168784 37.630909 -58.120435 196.829244
96 5 8 0.036111 40.03107 -61.987069 195.675657
97 5 24 0.124281 33.718008 -58.067757 192.131812
98 5 24 0.154192 39.52689 -59.760393 197.406241
99 5 69 -0.081133 35.392035 -57.160456 195.121405
100 5 69 -0.165620 37.875805 -60.708959 194.402368
101 5 9 0.047555 36.067219 -58.558342 194.469045
102 5 9 -0.198352 41.21225 -63.907756 195.08999
103 5 22 0.135647 33.499861 -56.148973 193.888486
104 5 9 -0.055342 34.226776 -56.948794 193.928729
105 5 8 0.145190 39.03718 -60.903832 195.608004
106 5 9 0.154002 37.193508 -59.308991 195.046968
107 5 8 -0.069343 41.881812 -63.569605 196.25841
108 5 24 0.147292 35.614099 -59.733082 192.680919
109 5 8 -0.243128 37.87063 -58.979287 196.216424
110 5 24 0.119735 41.467629 -64.771861 194.4912
111 5 24 0.146049 39.556685 -63.14496 193.881933
112 5 8 -0.187742 38.90176 -59.871064 196.530384
113 5 9 -0.116902 40.176238 -63.024529 194.760919
114 5 69 -0.075914 41.188015 -62.172843 196.88493
115 5 22 0.143700 42.70997 -64.114321 196.691093
116 6 8 -0.208958 52.335147 37.544274 249.091766
117 6 8 -0.120106 51.340555 38.498032 249.342741
118 6 24 0.168784 48.181922 37.336161 251.940306
119 6 8 0.036111 46.496108 41.656124 251.206588
120 6 24 0.124281 53.184837 37.728576 248.447987
121 6 24 0.154192 46.340126 39.066322 252.421411
122 6 69 -0.081133 50.708726 36.45441 250.640839
123 6 69 -0.165620 48.801337 40.386632 250.219518
124 6 9 0.047555 50.346748 38.038883 250.200439
125 6 9 -0.198352 45.672693 43.803114 250.832887
126 6 22 0.135647 52.772096 35.471163 249.692558
127 6 9 -0.055342 52.127909 36.338177 249.747804
128 6 8 0.145190 47.38108 40.483346 251.121649
129 6 9 0.154002 49.17204 38.800787 250.653825
130 6 8 -0.069343 44.691588 43.323187 251.690191
131 6 24 0.147292 51.352402 39.489177 248.908915
132 6 8 -0.243128 48.184083 38.329871 251.512315
133 6 24 0.119735 45.656508 44.801137 250.415597
134 6 24 0.146049 47.522312 43.088322 249.910859
135 6 8 -0.187742 47.182369 39.270675 251.774088
136 6 9 -0.116902 46.683804 42.873086 250.560123
137 6 69 -0.075914 45.078402 41.742649 252.11102
138 6 22 0.143700 43.825184 43.874782 252.029108
139 7 8 -0.208958 34.779186 -2.16705 42.509274
140 7 8 -0.120106 35.657782 -1.095462 42.305258
141 7 24 0.168784 36.52781 1.339612 45.679827
142 7 8 0.036111 39.25725 3.780001 42.740941
143 7 24 0.124281 34.486301 -2.851703 41.724507
144 7 24 0.154192 38.138884 3.315516 45.337229
145 7 69 -0.081133 35.002153 -1.026819 44.718989
146 7 69 -0.165620 37.65138 1.51389 42.309756
147 7 9 0.047555 35.888782 -0.350966 43.456988
148 7 9 -0.198352 40.607714 4.98042 41.270407
149 7 22 0.135647 33.635553 -3.019993 44.18685
150 7 9 -0.055342 34.318687 -2.268317 43.815295
151 7 8 0.145190 38.326377 2.751798 43.23295
152 7 9 0.154002 36.759659 0.830407 43.566192
153 7 8 -0.069343 40.822965 5.709399 42.432355
154 7 24 0.147292 36.106579 -0.876625 41.345359
155 7 8 -0.243128 36.982417 1.567245 44.724758
156 7 24 0.119735 41.072688 5.224687 40.324586
157 7 24 0.146049 39.458748 3.232281 40.633193
158 7 8 -0.187742 37.858575 2.641848 44.538632
159 7 9 -0.116902 39.732243 3.900284 41.439382
160 7 69 -0.075914 39.926191 5.013439 43.671815
161 7 22 0.143700 41.46059 6.578315 42.522885
162 8 8 -0.208958 58.609484 -22.330406 287.070013
163 8 8 -0.120106 57.31372 -21.856058 287.31052
164 8 24 0.168784 54.86349 -21.162128 283.906246
165 8 8 0.036111 51.59199 -19.835567 287.00139
166 8 24 0.124281 59.319622 -22.541861 287.858292
167 8 24 0.154192 52.477821 -20.291296 284.315349
168 8 69 -0.081133 57.542941 -22.068633 284.827996
169 8 69 -0.165620 54.221961 -20.751835 287.380473
170 8 9 0.047555 56.579864 -21.656013 286.146238
171 8 9 -0.198352 49.979088 -19.18083 288.549646
172 8 22 0.135647 59.835653 -22.859754 285.319024
173 8 9 -0.055342 58.897485 -22.504055 285.722829
174 8 8 0.145190 52.874184 -20.319882 286.465465
175 8 9 0.154002 55.1941 -21.166666 286.067535
176 8 8 -0.069343 49.265669 -18.987918 287.374196
177 8 24 0.147292 56.93096 -21.667261 288.304787
178 8 8 -0.243128 54.470514 -20.970351 284.895908
179 8 24 0.119735 49.567291 -18.983124 289.530349
180 8 24 0.146049 51.968325 -19.857425 289.15571
181 8 8 -0.187742 53.173062 -20.496779 285.118204
182 8 9 -0.116902 51.280985 -19.654969 288.344819
183 8 69 -0.075914 50.250817 -19.406077 286.07826
184 8 22 0.143700 48.24767 -18.629059 287.305819
185 9 8 -0.208958 -18.492626 -32.908829 248.000582
186 9 8 -0.120106 -17.2988 -33.150311 248.692189
187 9 24 0.168784 -14.178701 -30.308046 248.181544
188 9 8 0.036111 -11.721914 -33.043466 251.101145
189 9 24 0.124281 -19.352506 -33.56307 248.055051
190 9 24 0.154192 -11.973632 -30.723444 249.439417
191 9 69 -0.081133 -16.964749 -31.021637 247.420257
192 9 69 -0.165620 -14.3383 -33.295155 250.105566
193 9 9 0.047555 -16.332083 -32.175259 248.471172
194 9 9 -0.198352 -10.515944 -34.410892 252.551321
195 9 22 0.135647 -19.282003 -31.37787 246.628462
196 9 9 -0.055342 -18.468872 -31.749138 247.237328
197 9 8 0.145190 -12.836181 -32.550222 250.275967
198 9 9 0.154002 -14.980419 -32.146212 249.052684
199 9 8 -0.069343 -9.565952 -33.426124 252.315501
200 9 24 0.147292 -17.152458 -34.010911 249.33146
201 9 8 -0.243128 -14.021753 -31.164768 248.823444
202 9 24 0.119735 -10.339061 -35.260312 253.197573
203 9 24 0.146049 -12.566508 -34.874053 251.948973
204 9 8 -0.187742 -12.82249 -31.390504 249.507461
205 9 9 -0.116902 -11.72333 -34.200019 251.873495
206 9 69 -0.075914 -10.224141 -32.291577 251.264589
207 9 22 0.143700 -8.570683 -33.395722 252.737748
208 10 8 -0.208958 49.93567 32.760585 156.769673
209 10 8 -0.120106 51.317976 32.732752 156.993975
210 10 24 0.168784 53.455728 36.328935 156.237842
211 10 8 0.036111 57.251752 33.906808 157.566713
212 10 24 0.124281 49.29167 31.905854 156.928066
213 10 24 0.154192 55.996227 36.30975 156.641116
214 10 69 -0.081133 50.77227 35.044795 156.208279
215 10 69 -0.165620 54.553543 33.143084 157.375961
216 10 9 0.047555 51.940308 33.946677 156.723408
217 10 9 -0.198352 59.12579 32.691695 158.229067
218 10 22 0.135647 48.4395 34.227412 156.091766
219 10 9 -0.055342 49.468746 33.990056 156.324264
220 10 8 0.145190 55.847515 34.215857 157.253015
221 10 9 0.154002 53.377049 34.234597 156.86078
222 10 8 -0.069343 59.72576 33.912836 157.952088
223 10 24 0.147292 51.840254 31.85158 157.342508
224 10 8 -0.243128 53.987905 35.4538 156.586507
225 10 24 0.119735 59.676364 31.828011 158.577437
226 10 24 0.146049 57.124169 31.812193 158.182755
227 10 8 -0.187742 55.369527 35.443557 156.805788
228 10 9 -0.116902 57.74173 32.68471 158.01453
229 10 69 -0.075914 58.53798 34.98616 157.440248
230 10 22 0.143700 60.779874 34.134348 158.049829
231 11 8 -0.208958 -8.304224 -37.212658 124.971995
232 11 8 -0.120106 -7.266418 -37.103543 124.037699
233 11 24 0.168784 -5.582403 -40.736649 122.609802
234 11 8 0.036111 -2.784408 -37.985952 120.03157
235 11 24 0.124281 -8.806518 -36.357048 125.403298
236 11 24 0.154192 -3.674743 -40.569307 120.892257
237 11 69 -0.081133 -7.6263 -39.550424 124.417063
238 11 69 -0.165620 -4.82747 -37.344569 121.852152
239 11 9 0.047555 -6.772643 -38.335632 123.622655
240 11 9 -0.198352 -1.40374 -36.607641 118.758289
241 11 22 0.135647 -9.396488 -38.831576 125.989704
242 11 9 -0.055342 -8.628364 -38.524065 125.293167
243 11 8 0.145190 -3.832188 -38.390322 120.982589
244 11 9 0.154002 -5.687232 -38.553153 122.65283
245 11 8 -0.069343 -0.926216 -37.848764 118.358976
246 11 24 0.147292 -6.893157 -36.152782 123.680708
247 11 8 -0.243128 -5.201796 -39.791506 122.245817
248 11 24 0.119735 -1.009226 -35.673312 118.381682
249 11 24 0.146049 -2.92633 -35.804817 120.10712
250 11 8 -0.187742 -4.164344 -39.700692 121.311733
251 11 9 -0.116902 -2.443345 -36.680625 119.694018
252 11 69 -0.075914 -1.794633 -39.039112 119.167524
253 11 22 0.143700 -0.12968 -38.019067 117.647426
254 12 8 -0.208958 35.864232 -40.316744 54.238333
255 12 8 -0.120106 36.837494 -39.384314 53.857295
256 12 24 0.168784 40.820175 -40.82017 53.468946
257 12 8 0.036111 41.895519 -36.404415 52.291177
258 12 24 0.124281 34.820111 -40.064994 54.368041
259 12 24 0.154192 42.63049 -39.131689 52.769716
260 12 69 -0.081133 38.019718 -41.572044 54.134493
261 12 69 -0.165620 39.439045 -37.577665 52.990617
262 12 9 0.047555 38.110574 -39.934374 53.753292
263 12 9 -0.198352 42.413118 -34.20908 51.708232
264 12 22 0.135647 35.7888 -42.46208 54.729768
265 12 9 -0.055342 36.366041 -41.596512 54.43426
266 12 8 0.145190 41.098143 -37.57375 52.694471
267 12 9 0.154002 39.337802 -39.215757 53.374481
268 12 8 -0.069343 43.67524 -34.779651 51.611472
269 12 24 0.147292 36.612521 -38.343515 53.665357
270 12 8 -0.243128 40.606316 -39.777583 53.274223
271 12 24 0.119735 42.220184 -33.1634 51.508798
272 12 24 0.146049 40.377692 -34.831924 52.209491
273 12 8 -0.187742 41.590959 -38.85947 52.893943
274 12 9 -0.116902 41.41502 -35.115185 52.088324
275 12 69 -0.075914 43.553614 -36.410835 51.997825
276 12 22 0.143700 44.582613 -34.260529 51.334048
277 13 8 -0.208958 -8.870613 -3.130381 212.296559
278 13 8 -0.120106 -10.239842 -3.193335 212.008282
279 13 24 0.168784 -12.273477 0.511045 211.543364
280 13 8 0.036111 -16.087568 -2.112852 210.762168
281 13 24 0.124281 -8.252713 -4.007469 212.43551
282 13 24 0.154192 -14.789169 0.428525 211.01269
283 13 69 -0.081133 -9.646239 -0.764756 212.109743
284 13 69 -0.165620 -13.433785 -2.844296 211.329993
285 13 9 0.047555 -10.828005 -1.940507 211.871892
286 13 9 -0.198352 -17.970948 -3.428573 210.376179
287 13 22 0.135647 -7.35546 -1.561479 212.600733
288 13 9 -0.055342 -8.379972 -1.834609 212.387389
289 13 8 0.145190 -14.69018 -1.75537 211.054247
290 13 9 0.154002 -12.243836 -1.675022 211.570342
291 13 8 -0.069343 -18.536841 -2.167442 210.245116
292 13 24 0.147292 -10.777256 -4.126626 211.90403
293 13 8 -0.243128 -12.820531 -0.416305 211.436618
294 13 24 0.119735 -18.535937 -4.344502 210.265245
295 13 24 0.146049 -16.009482 -4.298205 210.798725
296 13 8 -0.187742 -14.188657 -0.46099 211.147995
297 13 9 -0.116902 -16.600811 -3.401797 210.665494
298 13 69 -0.075914 -17.336159 -1.016771 210.488306
299 13 22 0.143700 -19.575374 -1.96195 210.023756
300 14 8 -0.208958 -58.194659 39.755565 168.340248
301 14 8 -0.120106 -58.947402 38.574486 168.323336
302 14 24 0.168784 -60.172493 37.027729 172.089096
303 14 8 0.036111 -62.202032 33.604675 169.597898
304 14 24 0.124281 -57.829344 40.239068 167.444056
305 14 24 0.154192 -61.557102 34.859784 172.091082
306 14 69 -0.081133 -58.68903 39.217769 170.727517
307 14 69 -0.165620 -60.718248 35.846883 168.778822
308 14 9 0.047555 -59.306996 38.137108 169.593576
309 14 9 -0.198352 -63.204047 31.913445 168.347725
310 14 22 0.135647 -57.404261 41.144511 169.855426
311 14 9 -0.055342 -57.960962 40.248376 169.61717
312 14 8 0.145190 -61.44141 34.825808 169.907877
313 14 9 0.154002 -60.094926 36.933978 169.90605
314 14 8 -0.069343 -63.550942 31.495424 169.625531
315 14 24 0.147292 -59.217137 38.06126 167.409795
316 14 8 -0.243128 -60.448083 36.506679 171.181794
317 14 24 0.119735 -63.490118 31.377696 167.452414
318 14 24 0.146049 -62.098383 33.552854 167.413917
319 14 8 -0.187742 -61.201109 35.327689 171.183065
320 14 9 -0.116902 -62.449319 33.093153 168.328513
321 14 69 -0.075914 -62.92081 32.590595 170.733844
322 14 22 0.143700 -64.129263 30.613521 169.865468
323 15 8 -0.208958 53.873908 -55.812529 252.30813
324 15 8 -0.120106 52.69116 -55.4132 251.672916
325 15 24 0.168784 49.976079 -58.491593 250.565629
326 15 8 0.036111 47.298179 -55.011963 248.903276
327 15 24 0.124281 54.63622 -55.117384 252.633777
328 15 24 0.154192 47.79421 -57.789865 249.397659
329 15 69 -0.081133 52.59777 -57.907664 251.844923
330 15 69 -0.165620 49.806428 -54.960967 250.17059
331 15 9 0.047555 51.860013 -56.478923 251.344974
332 15 9 -0.198352 45.980637 -53.274302 248.083614
333 15 22 0.135647 54.804171 -57.703724 252.94661
334 15 9 -0.055342 53.976335 -57.186447 252.480936
335 15 8 0.145190 48.431694 -55.703063 249.538352
336 15 9 0.154002 50.553422 -56.385552 250.674082
337 15 8 -0.069343 45.167329 -54.35364 247.76514
338 15 24 0.147292 52.456286 -54.378132 251.462716
339 15 8 -0.243128 49.731018 -57.459839 250.350993
340 15 24 0.119735 45.71681 -52.249121 247.860357
341 15 24 0.146049 47.917358 -52.918514 249.034761
342 15 8 -0.187742 48.544375 -57.078396 249.715817
343 15 9 -0.116902 47.173618 -53.638939 248.720427
344 15 69 -0.075914 45.928661 -55.762941 248.274127
345 15 22 0.143700 44.206172 -54.29554 247.272617
346 16 8 -0.208958 38.735786 60.329294 210.025808
347 16 8 -0.120106 39.096933 58.976579 210.06568
348 16 24 0.168784 43.06 58.014098 208.864854
349 16 8 0.036111 41.857492 53.571076 209.790014
350 16 24 0.124281 37.75578 60.690212 210.308149
351 16 24 0.154192 43.753706 55.537822 208.927759
352 16 69 -0.081133 41.107054 60.22475 209.25196
353 16 69 -0.165620 40.387176 55.957726 209.995121
354 16 9 0.047555 40.406907 58.748205 209.658335
355 16 9 -0.198352 41.24577 51.37157 210.253907
356 16 22 0.135647 39.688972 62.239309 209.484567
357 16 9 -0.055342 39.7552 61.16488 209.589234
358 16 8 0.145190 41.753224 55.032482 209.651378
359 16 9 0.154002 41.078715 57.440528 209.590127
360 16 8 -0.069343 42.556171 51.167262 209.842845
361 16 24 0.147292 38.418866 58.195267 210.382682
362 16 8 -0.243128 42.390387 57.224987 209.180389
363 16 24 0.119735 40.592047 50.568089 210.566173
364 16 24 0.146049 39.862302 53.044896 210.514965
365 16 8 -0.187742 42.767831 55.878348 209.214555
366 16 9 -0.116902 40.851517 52.715243 210.225567
367 16 69 -0.075914 43.227499 52.65544 209.443508
368 16 22 0.143700 43.058679 50.211022 209.789304
369 17 8 -0.208958 -56.764499 -42.480158 197.324143
370 17 8 -0.120106 -56.094915 -41.733577 196.346325
371 17 24 0.168784 -54.105564 -38.210589 197.652194
372 17 8 0.036111 -52.880059 -37.688094 193.150247
373 17 24 0.124281 -57.303949 -43.392616 197.1078
374 17 24 0.154192 -52.866008 -36.8181 195.879737
375 17 69 -0.081133 -55.75593 -40.530967 198.514153
376 17 69 -0.165620 -54.402152 -39.677257 194.425574
377 17 9 0.047555 -55.47187 -40.599392 196.855792
378 17 9 -0.198352 -52.279766 -37.443007 190.912657
379 17 22 0.135647 -57.112429 -42.353435 199.494984
380 17 9 -0.055342 -56.670781 -41.938419 198.599189
381 17 8 0.145190 -53.487254 -38.263352 194.361111
382 17 9 0.154002 -54.692659 -39.617369 196.084781
383 17 8 -0.069343 -51.666355 -36.316056 191.443292
384 17 24 0.147292 -56.070203 -42.018051 195.302688
385 17 8 -0.243128 -54.074097 -38.485909 196.606322
386 17 24 0.119735 -52.236051 -37.70088 189.862878
387 17 24 0.146049 -53.490659 -39.122504 191.616351
388 17 8 -0.187742 -53.399911 -37.728508 195.642534
389 17 9 -0.116902 -52.959738 -38.21291 191.864804
390 17 69 -0.075914 -51.967477 -36.274002 193.096283
391 17 22 0.143700 -51.091917 -35.588918 190.885557
392 18 8 -0.208958 -54.911638 56.90587 144.087224
393 18 8 -0.120106 -53.558211 56.545196 144.089091
394 18 24 0.168784 -52.682784 52.384923 144.090628
395 18 8 0.036111 -48.180765 53.716914 144.094788
396 18 24 0.124281 -55.25188 57.93282 144.08677
397 18 24 0.154192 -50.205891 51.690571 144.093361
398 18 69 -0.081133 -54.862371 54.409823 144.087231
399 18 69 -0.165620 -50.549087 55.230532 144.092268
400 18 9 0.047555 -53.359205 55.168783 144.089309
401 18 9 -0.198352 -45.951614 54.393751 144.096425
402 18 22 0.135647 -56.85719 55.874131 144.084363
403 18 9 -0.055342 -55.777002 55.819984 144.085999
404 18 8 0.145190 -49.649779 53.805202 144.093483
405 18 9 0.154002 -52.058433 54.480317 144.090875
406 18 8 -0.069343 -45.776933 53.016307 144.097303
407 18 24 0.147292 -52.755551 57.270765 144.090218
408 18 8 -0.243128 -51.872424 53.10183 144.091372
409 18 24 0.119735 -45.127127 55.094227 144.096902
410 18 24 0.146049 -47.603724 55.826469 144.094347
411 18 8 -0.187742 -50.525452 52.724032 144.092838
412 18 9 -0.116902 -47.295214 54.789267 144.095055
413 18 69 -0.075914 -47.291261 52.287174 144.096289
414 18 22 0.143700 -44.825999 52.50104 144.098385
415 19 8 -0.208958 -39.776302 53.216049 252.863075
416 19 8 -0.120106 -41.050676 52.856167 253.319485
417 19 24 0.168784 -43.688215 56.030063 254.341259
418 19 8 0.036111 -46.758896 52.636704 255.389315
419 19 24 0.124281 -39.023584 52.494292 252.575197
420 19 24 0.154192 -46.036498 55.401204 255.18223
421 19 69 -0.081133 -40.969246 55.356897 253.338817
422 19 69 -0.165620 -44.121148 52.500874 254.428153
423 19 9 0.047555 -41.849173 53.951292 253.631285
424 19 9 -0.198352 -48.271479 50.941492 255.904657
425 19 22 0.135647 -38.660287 55.078197 252.49351
426 19 9 -0.055342 -39.569411 54.588222 252.814692
427 19 8 0.145190 -45.515444 53.290325 254.950676
428 19 9 0.154002 -43.231889 53.901951 254.13294
429 19 8 -0.069343 -49.050305 52.04959 256.210295
430 19 24 0.147292 -41.372629 51.82774 253.416437
431 19 8 -0.243128 -44.020603 55.00533 254.441661
432 19 24 0.119735 -48.623117 49.923997 256.011896
433 19 24 0.146049 -46.257518 50.519836 255.16417
434 19 8 -0.187742 -45.297735 54.66352 254.899011
435 19 9 -0.116902 -46.988896 51.266254 255.445086
436 19 69 -0.075914 -48.147101 53.434847 255.910112
437 19 22 0.143700 -50.066689 52.023897 256.579185
438 20 8 -0.208958 11.344485 -35.429407 280.927228
439 20 8 -0.120106 10.568964 -36.595605 280.947336
440 20 24 0.168784 11.815316 -39.770821 278.409845
441 20 8 0.036111 8.109758 -42.089959 280.122396
442 20 24 0.124281 11.122635 -34.559005 281.530199
443 20 24 0.154192 10.411695 -41.926453 278.424882
444 20 69 -0.081133 12.421603 -37.002618 279.315551
445 20 69 -0.165620 9.07354 -39.504933 280.659762
446 20 9 0.047555 11.04409 -37.582975 280.090906
447 20 9 -0.198352 6.267505 -43.227751 280.98191
448 20 22 0.135647 13.149499 -34.708777 279.891719
449 20 9 -0.055342 12.426422 -35.495397 280.059437
450 20 8 0.145190 9.086069 -41.010819 279.903142
451 20 9 0.154002 10.451039 -38.914622 279.888414
452 20 8 -0.069343 6.75952 -44.19854 280.119729
453 20 24 0.147292 9.690803 -36.708031 281.569356
454 20 8 -0.243128 10.935909 -39.894099 279.027976
455 20 24 0.119735 5.385806 -43.371116 281.592235
456 20 24 0.146049 6.772254 -41.192264 281.601729
457 20 8 -0.187742 10.172699 -41.066495 279.036039
458 20 9 -0.116902 7.020444 -42.04675 280.985919
459 20 69 -0.075914 8.13086 -43.591617 279.36085
460 20 22 0.143700 6.331329 -45.179442 279.963973
461 21 8 -0.208958 -19.524191 -35.140227 206.530633
462 21 8 -0.120106 -19.886399 -34.37841 207.648799
463 21 24 0.168784 -16.946729 -33.911237 210.684311
464 21 8 0.036111 -20.197208 -31.359128 212.912207
465 21 24 0.124281 -20.189907 -35.325719 205.698283
466 21 24 0.154192 -17.581661 -32.516701 212.750531
467 21 69 -0.081133 -17.530484 -35.128452 208.033189
468 21 69 -0.165620 -20.276929 -32.687136 210.436317
469 21 9 0.047555 -18.869989 -34.274878 208.59236
470 21 9 -0.198352 -21.820513 -30.095004 214.004956
471 21 22 0.135647 -17.750468 -36.245187 205.835914
472 21 9 -0.055342 -18.228503 -35.635784 206.590799
473 21 8 0.145190 -19.55925 -32.188557 211.877386
474 21 9 0.154002 -18.941743 -33.544715 209.868176
475 21 8 -0.069343 -20.791754 -30.005785 214.933158
476 21 24 0.147292 -20.860563 -33.920568 207.758808
477 21 8 -0.243128 -17.917478 -33.44878 210.804395
478 21 24 0.119735 -22.784707 -29.62444 214.144039
479 21 24 0.146049 -22.180605 -31.018712 212.055789
480 21 8 -0.187742 -18.262595 -32.690394 211.928144
481 21 9 -0.116902 -21.491376 -30.851447 212.873073
482 21 69 -0.075914 -19.471331 -30.866359 214.349447
483 21 22 0.143700 -20.83452 -29.472022 215.872863
484 22 8 -0.208958 -21.979573 23.953194 100.155847
485 22 8 -0.120106 -21.225493 23.572615 99.038539
486 22 24 0.168784 -23.370912 21.994927 95.72458
487 22 8 0.036111 -19.165115 21.589099 93.677882
488 22 24 0.124281 -21.541327 24.366247 101.054579
489 22 24 0.154192 -22.013933 21.287438 93.656924
490 22 69 -0.081133 -23.61703 23.097706 98.476695
491 22 69 -0.165620 -19.892842 22.553532 96.215652
492 22 9 0.047555 -22.002001 23.068091 98.000943
493 22 9 -0.198352 -17.07107 21.394413 92.675733
494 22 22 0.135647 -24.103059 23.974932 100.738941
495 22 9 -0.055342 -23.344491 23.750279 100.001482
496 22 8 0.145190 -20.186827 21.898738 94.690811
497 22 9 0.154002 -21.506488 22.586653 96.701451
498 22 8 -0.069343 -17.866104 20.893543 91.653521
499 22 24 0.147292 -20.148324 23.665364 98.995867
500 22 8 -0.243128 -22.293922 22.083633 95.671042
501 22 24 0.119735 -15.994732 21.475116 92.602065
502 22 24 0.146049 -17.326069 22.195228 94.6946
503 22 8 -0.187742 -21.556113 21.698841 94.546479
504 22 9 -0.116902 -17.79451 21.784483 93.80983
505 22 69 -0.075914 -19.469242 20.934405 92.156613
506 22 22 0.143700 -17.511884 20.537588 90.695606
507 23 8 -0.208958 -60.177874 2.941224 11.771293
508 23 8 -0.120106 -60.335574 1.906163 12.701688
509 23 24 0.168784 -61.844012 -1.784628 11.226248
510 23 8 0.036111 -61.460136 -3.280371 15.659958
511 23 24 0.124281 -59.802992 3.921802 12.032676
512 23 24 0.154192 -62.144256 -3.705471 12.91069
513 23 69 -0.081133 -61.072612 0.993188 10.491732
514 23 69 -0.165620 -60.868889 -0.789942 14.498845
515 23 9 0.047555 -60.832569 0.735753 12.138438
516 23 9 -0.198352 -61.263469 -4.007793 17.864364
517 23 22 0.135647 -60.506096 3.236351 9.613786
518 23 9 -0.055342 -60.548409 2.590116 10.480003
519 23 8 0.145190 -61.398204 -2.389963 14.489857
520 23 9 0.154002 -61.106317 -0.522106 12.851774
521 23 8 -0.069343 -61.760968 -5.165168 17.280546
522 23 24 0.147292 -60.092723 2.015139 13.750431
523 23 8 -0.243128 -61.604058 -1.686746 12.276715
524 23 24 0.119735 -61.02943 -3.930549 18.917789
525 23 24 0.146049 -60.715791 -1.980664 17.253668
526 23 8 -0.187742 -61.767387 -2.73149 13.192631
527 23 9 -0.116902 -61.093952 -2.951278 16.96063
528 23 69 -0.075914 -61.991103 -4.878206 15.640572
529 23 22 0.143700 -61.965317 -6.093953 17.795694
530 24 8 -0.208958 -18.636423 -46.978937 50.72015
531 24 8 -0.120106 -18.690257 -46.400578 49.445608
532 24 24 0.168784 -20.130776 -48.853779 46.286343
533 24 8 0.036111 -19.405304 -45.106595 43.552353
534 24 24 0.124281 -18.287653 -46.450272 51.597226
535 24 24 0.154192 -20.242209 -47.819799 43.933557
536 24 69 -0.081133 -19.527416 -48.745419 49.197536
537 24 69 -0.165620 -18.994444 -45.483545 46.307185
538 24 9 0.047555 -19.172044 -47.268274 48.47139
539 24 9 -0.198352 -19.040287 -43.238602 42.209001
540 24 22 0.135647 -19.114234 -48.926331 51.630653
541 24 9 -0.055342 -19.073387 -48.296522 50.752353
542 24 8 0.145190 -19.454753 -45.952852 44.75535
543 24 9 0.154002 -19.346382 -46.958437 47.043244
544 24 8 -0.069343 -19.523151 -44.12232 41.253097
545 24 24 0.147292 -18.3858 -45.381221 49.248293
546 24 8 -0.243128 -19.829358 -47.835767 46.077919
547 24 24 0.119735 -18.744234 -42.223585 41.979794
548 24 24 0.146049 -18.619052 -43.230158 44.354844
549 24 8 -0.187742 -19.890048 -47.27361 44.798323
550 24 9 -0.116902 -18.972982 -43.785945 43.496472
551 24 69 -0.075914 -19.867458 -45.585239 42.005521
552 24 22 0.143700 -19.654942 -43.904405 40.201944
553 25 8 -0.208958 57.556744 -56.862341 270.911481
554 25 8 -0.120106 57.271122 -55.493983 271.000201
555 25 24 0.168784 60.446367 -52.810995 270.109333
556 25 8 0.036111 57.329585 -49.418415 271.014022
557 25 24 0.124281 56.827476 -57.634997 271.115352
558 25 24 0.154192 59.952801 -50.291078 270.262759
559 25 69 -0.081133 59.670699 -55.675767 270.314898
560 25 69 -0.165620 57.074541 -52.216899 271.072659
561 25 9 0.047555 58.361385 -54.686894 270.693526
562 25 9 -0.198352 55.771401 -47.74652 271.465749
563 25 22 0.135647 59.293625 -58.119618 270.40932
564 25 9 -0.055342 58.865744 -57.134515 270.536721
565 25 8 0.145190 57.899203 -50.764828 270.845184
566 25 9 0.154002 58.379275 -53.215272 270.696007
567 25 8 -0.069343 56.873415 -46.960587 271.156332
568 25 24 0.147292 56.297933 -55.112589 271.279766
569 25 8 -0.243128 59.4771 -52.418789 270.387429
570 25 24 0.119735 54.809913 -47.33423 271.741436
571 25 24 0.146049 55.270978 -49.871233 271.597372
572 25 8 -0.187742 59.208857 -51.048328 270.470796
573 25 9 -0.116902 56.02303 -49.122095 271.387187
574 25 69 -0.075914 58.162406 -47.973042 270.784497
575 25 22 0.143700 56.896712 -45.879276 271.155196
576 26 8 -0.208958 34.519702 -10.641414 90.213998
577 26 8 -0.120106 35.653425 -9.982793 90.706691